# vtk DataFile Version 3.0
MOAB 5.0.1
ASCII
DATASET UNSTRUCTURED_GRID
POINTS 66 double
0 0 0
1 0 0
0 1 0
1 1 0
0 0 1
1 0 1
0 1 1
1 1 1
0.5 0 1
1 0 0.5
0.5 0 0
0 0 0.5
0 0.5 1
0.5 1 1
1 1 0.5
0.5 1 0
0 1 0.5
0 0.5 0
1 0.5 1
1 0.5 0
0.5532675983 0.4352635691 1
0.4199347618 0.7645107395 1
0.6066264751 0.7127492974 1
0 0.5532657569 0.4352625089
0 0.4199333007 0.7645098983
0 0.6066250341 0.7127484678
0.4467324017 1 0.5647364309
0.5800652382 1 0.2354892605
0.3933735249 1 0.2872507026
0.4990234375 0.4990234375 0
0.4467324017 0 0.5647364309
0.5800652382 0 0.2354892605
0.3933735249 0 0.2872507026
1 0.4999994886 0.4999994886
0.2096445669 0.2332257716 0.8374998037
0.7964643796 0.2329222601 0.9259420613
0.1492398902 0.8005963002 0.8809379654
0.6133354839 0.8919887779 0.9052217701
0.8275954971 0.6432462211 0.8519680552
0.2284176926 0.6208272165 0.7880045547
0.1619645126 0.2437493443 0.2240145813
0.1204041595 0.8206649207 0.2425796558
0.06630543184 0.2153302855 0.8175383188
0.1027575109 0.6573988343 0.8831667047
0.134917978 0.8461060039 0.6525355517
0.1602553853 0.3074160489 0.6335925002
0.4229850641 0.8843002121 0.1069272373
0.1851094746 0.9433876143 0.3426095453
0.7930967323 0.9220611936 0.1651813472
0.2212895595 0.8455697726 0.7855247025
0.7390204073 0.8814747738 0.8432012262
0.7123256854 0.8100323211 0.3557934901
0.26293199 0.2196643411 0.09347027592
0.7543557497 0.2002157369 0.1687287926
0.2536238777 0.8014310353 0.1079635219
0.7245567987 0.7937772295 0.1659915876
0.3790181263 0.1206094008 0.10697931
0.1726748579 0.1422254552 0.338184673
0.7960467513 0.07762172668 0.1693295043
0.1482521512 0.158991069 0.7686461007
0.7614168267 0.2017702177 0.8002648032
0.6985663092 0.1897291983 0.3062951797
0.8405475301 0.1589334729 0.2374457893
0.8397900033 0.8381105795 0.2340770872
0.8596897768 0.3253569731 0.829346217
0.8088247139 0.7946788985 0.7368913222
CELLS 0 0
CELL_TYPES 0
POINT_DATA 66
SCALARS GLOBAL_ID int 1
LOOKUP_TABLE default
0 
1 
2 
3 
4 
5 
6 
7 
8 
9 
10 
11 
12 
13 
14 
15 
16 
17 
18 
19 
20 
21 
22 
23 
24 
25 
26 
27 
28 
29 
30 
31 
32 
33 
34 
35 
36 
37 
38 
39 
40 
41 
42 
43 
44 
45 
46 
47 
48 
49 
50 
51 
52 
53 
54 
55 
56 
57 
58 
59 
60 
61 
62 
63 
64 
65 
SCALARS FLAGS int 1
LOOKUP_TABLE default
101 
101 
101 
101 
202 
202 
202 
202 
0 
0 
0 
0 
0 
0 
0 
0 
0 
0 
0 
0 
0 
0 
0 
0 
0 
0 
0 
0 
0 
0 
0 
0 
0 
0 
0 
0 
0 
0 
0 
0 
0 
0 
0 
0 
0 
0 
0 
0 
0 
0 
0 
0 
0 
0 
0 
0 
0 
0 
0 
0 
0 
0 
0 
0 
0 
0 
SCALARS BUNDA int 1
LOOKUP_TABLE default
0 
1 
2 
3 
4 
5 
6 
7 
8 
9 
10 
11 
12 
13 
14 
15 
16 
17 
18 
19 
20 
21 
22 
23 
24 
25 
26 
27 
28 
29 
30 
31 
32 
33 
0 
0 
0 
0 
0 
0 
0 
0 
0 
0 
0 
0 
0 
0 
0 
0 
0 
0 
0 
0 
0 
0 
0 
0 
0 
0 
0 
0 
0 
0 
0 
0 
