# vtk DataFile Version 3.0
MOAB 5.0.1
ASCII
DATASET UNSTRUCTURED_GRID
POINTS 51 double
0 0 0
2 0 0
0 2 0
2 2 0
0 0 2
2 0 2
0 2 2
2 2 2
1 0 2
2 0 1
1 0 0
0 0 1
0 1 2
1 2 2
2 2 1
1 2 0
0 2 1
0 1 0
2 1 2
2 1 0
1 1 2
1.5 0.5 2
0.5 1.5 2
0.5 0.5 2
1.5 1.5 2
0 1 1
0 0.5 1.5
0 1.5 0.5
0 0.5 0.5
0 1.5 1.5
1 2 1
1.5 2 0.5
1.5 2 1.5
0.5 2 1.5
0.5 2 0.5
1 1 0
0.5 1.5 0
1.5 1.5 0
1.5 0.5 0
0.5 0.5 0
1 0 1
1.5 0 0.5
1.5 0 1.5
0.5 0 0.5
0.5 0 1.5
2 1 1
2 1.5 1.5
2 0.5 1.5
2 0.5 0.5
2 1.5 0.5
1.131443299 0.8788659794 1.121134021
CELLS 129 645
4 36 34 27 25
4 34 35 25 36
4 37 31 30 50
4 25 30 33 50
4 33 29 25 50
4 30 35 37 50
4 35 25 28 50
4 46 32 30 50
4 38 48 35 50
4 30 25 35 50
4 35 34 25 30
4 36 28 35 25
4 28 25 44 40
4 46 30 32 14
4 11 25 44 28
4 11 28 44 40
4 36 28 25 17
4 35 28 17 39
4 36 28 17 35
4 17 36 27 25
4 19 35 38 48
4 33 30 20 50
4 28 25 40 50
4 25 26 44 50
4 44 40 25 50
4 23 26 25 50
4 40 41 38 50
4 25 20 23 50
4 30 32 24 50
4 30 45 46 50
4 38 35 40 50
4 35 48 45 50
4 31 34 37 30
4 33 24 20 30
4 22 33 24 20
4 34 37 30 35
4 29 23 25 20
4 41 43 40 38
4 34 25 16 27
4 25 11 44 26
4 23 29 25 26
4 43 35 40 38
4 16 33 25 30
4 22 33 13 24
4 33 13 24 30
4 31 34 15 37
4 30 45 14 46
4 29 23 12 26
4 20 12 29 23
4 37 34 15 35
4 13 32 24 30
4 41 43 38 10
4 45 19 48 35
4 10 35 43 38
4 34 36 15 35
4 28 11 43 40
4 16 33 29 25
4 10 35 39 43
4 23 44 26 50
4 46 24 32 50
4 38 41 48 50
4 29 20 25 50
4 24 20 30 50
4 20 12 22 29
4 25 34 16 30
4 8 44 23 50
4 42 8 21 50
4 21 18 47 50
4 42 47 9 50
4 24 46 18 50
4 48 41 9 50
4 8 20 21 50
4 8 40 44 50
4 42 40 8 50
4 8 23 20 50
4 21 20 18 50
4 9 40 42 50
4 45 18 46 50
4 45 47 18 50
4 48 9 45 50
4 45 9 47 50
4 42 21 47 50
4 8 5 42 21
4 3 49 37 19
4 39 0 28 17
4 5 21 18 47
4 4 8 44 23
4 38 19 48 1
4 32 14 7 46
4 42 5 9 47
4 36 2 17 27
4 24 18 20 50
4 40 9 41 50
4 5 42 21 47
4 34 36 2 15
4 48 9 41 1
4 14 3 49 31
4 18 7 46 24
4 16 33 6 29
4 11 4 44 26
4 13 32 7 24
4 0 39 43 10
4 22 33 6 13
4 23 4 12 26
4 11 0 28 43
4 34 16 2 27
4 37 3 15 31
4 10 38 41 1
4 49 3 37 31
4 7 32 46 24
4 44 4 23 26
4 38 48 41 1
4 0 39 28 43
4 36 34 2 27
4 22 6 29 12
4 33 22 6 29
4 50 37 45 35
4 19 45 37 35
4 19 37 45 49
4 20 33 29 22
4 20 29 33 50
4 31 50 45 30
4 45 14 31 30
4 31 14 45 49
4 35 43 28 39
4 40 28 35 43
4 40 35 28 50
4 37 45 31 50
4 37 31 45 49
CELL_TYPES 129
10
10
10
10
10
10
10
10
10
10
10
10
10
10
10
10
10
10
10
10
10
10
10
10
10
10
10
10
10
10
10
10
10
10
10
10
10
10
10
10
10
10
10
10
10
10
10
10
10
10
10
10
10
10
10
10
10
10
10
10
10
10
10
10
10
10
10
10
10
10
10
10
10
10
10
10
10
10
10
10
10
10
10
10
10
10
10
10
10
10
10
10
10
10
10
10
10
10
10
10
10
10
10
10
10
10
10
10
10
10
10
10
10
10
10
10
10
10
10
10
10
10
10
10
10
10
10
10
10
POINT_DATA 51
SCALARS GLOBAL_ID int 1
LOOKUP_TABLE default
0 
1 
2 
3 
4 
5 
6 
7 
8 
9 
10 
11 
12 
13 
14 
15 
16 
17 
18 
19 
20 
21 
22 
23 
24 
25 
26 
27 
28 
29 
30 
31 
32 
33 
34 
35 
36 
37 
38 
39 
40 
41 
42 
43 
44 
45 
46 
47 
48 
49 
50 
SCALARS ID-NODES int 1
LOOKUP_TABLE default
0 
1 
2 
3 
4 
5 
6 
7 
8 
9 
10 
11 
12 
13 
14 
15 
16 
17 
18 
19 
20 
21 
22 
23 
24 
25 
26 
27 
28 
29 
30 
31 
32 
33 
34 
35 
36 
37 
38 
39 
40 
41 
42 
43 
44 
45 
46 
47 
48 
49 
50 
SCALARS FLAGS int 1
LOOKUP_TABLE default
101 
101 
101 
101 
202 
202 
202 
202 
0 
0 
0 
0 
0 
0 
0 
0 
0 
0 
0 
0 
0 
0 
0 
0 
0 
0 
0 
0 
0 
0 
0 
0 
0 
0 
0 
0 
0 
0 
0 
0 
0 
0 
0 
0 
0 
0 
0 
0 
0 
0 
0 
CELL_DATA 129
SCALARS GLOBAL_ID int 1
LOOKUP_TABLE default
0 
1 
2 
3 
4 
5 
6 
7 
8 
9 
10 
11 
12 
13 
14 
15 
16 
17 
18 
19 
20 
21 
22 
23 
24 
25 
26 
27 
28 
29 
30 
31 
32 
33 
34 
35 
36 
37 
38 
39 
40 
41 
42 
43 
44 
45 
46 
47 
48 
49 
50 
51 
52 
53 
54 
55 
56 
57 
58 
59 
60 
61 
62 
63 
64 
65 
66 
67 
68 
69 
70 
71 
72 
73 
74 
75 
76 
77 
78 
79 
80 
81 
82 
83 
84 
85 
86 
87 
88 
89 
90 
91 
92 
93 
94 
95 
96 
97 
98 
99 
100 
101 
102 
103 
104 
105 
106 
107 
108 
109 
110 
111 
112 
113 
114 
115 
116 
117 
118 
119 
120 
121 
122 
123 
124 
125 
126 
127 
128 
SCALARS ID-VOLUMES int 1
LOOKUP_TABLE default
0 
1 
2 
3 
4 
5 
6 
7 
8 
9 
10 
11 
12 
13 
14 
15 
16 
17 
18 
19 
20 
21 
22 
23 
24 
25 
26 
27 
28 
29 
30 
31 
32 
33 
34 
35 
36 
37 
38 
39 
40 
41 
42 
43 
44 
45 
46 
47 
48 
49 
50 
51 
52 
53 
54 
55 
56 
57 
58 
59 
60 
61 
62 
63 
64 
65 
66 
67 
68 
69 
70 
71 
72 
73 
74 
75 
76 
77 
78 
79 
80 
81 
82 
83 
84 
85 
86 
87 
88 
89 
90 
91 
92 
93 
94 
95 
96 
97 
98 
99 
100 
101 
102 
103 
104 
105 
106 
107 
108 
109 
110 
111 
112 
113 
114 
115 
116 
117 
118 
119 
120 
121 
122 
123 
124 
125 
126 
127 
128 
SCALARS MATERIAL int 1
LOOKUP_TABLE default
1 
1 
1 
1 
1 
1 
1 
1 
1 
1 
1 
1 
1 
1 
1 
1 
1 
1 
1 
1 
1 
1 
1 
1 
1 
1 
1 
1 
1 
1 
1 
1 
1 
1 
1 
1 
1 
1 
1 
1 
1 
1 
1 
1 
1 
1 
1 
1 
1 
1 
1 
1 
1 
1 
1 
1 
1 
1 
1 
1 
1 
1 
1 
1 
1 
1 
1 
1 
1 
1 
1 
1 
1 
1 
1 
1 
1 
1 
1 
1 
1 
1 
1 
1 
1 
1 
1 
1 
1 
1 
1 
1 
1 
1 
1 
1 
1 
1 
1 
1 
1 
1 
1 
1 
1 
1 
1 
1 
1 
1 
1 
1 
1 
1 
1 
1 
1 
1 
1 
1 
1 
1 
1 
1 
1 
1 
1 
1 
1 
SCALARS PARALLEL int 1
LOOKUP_TABLE default
0 
0 
0 
2 
2 
0 
0 
2 
1 
0 
0 
0 
1 
2 
1 
1 
0 
0 
0 
0 
1 
2 
1 
1 
1 
2 
1 
2 
2 
0 
1 
1 
0 
2 
2 
0 
2 
1 
0 
1 
2 
1 
2 
2 
2 
0 
0 
2 
2 
0 
2 
1 
1 
1 
0 
1 
2 
0 
2 
2 
1 
2 
2 
2 
0 
2 
1 
1 
1 
2 
1 
2 
1 
1 
2 
2 
1 
1 
1 
1 
1 
1 
1 
0 
0 
1 
2 
1 
2 
1 
0 
2 
1 
1 
0 
1 
0 
2 
2 
1 
2 
0 
2 
2 
0 
0 
0 
1 
0 
2 
2 
1 
0 
0 
2 
2 
0 
0 
0 
2 
2 
0 
0 
0 
0 
1 
1 
0 
0 
VECTORS CENTER double
0.25 1.5 0.5 
0.5 1.375 0.375 
1.282860825 1.594716495 0.6552835052 
0.6578608247 1.469716495 1.155283505 
0.4078608247 1.344716495 1.280283505 
1.157860825 1.344716495 0.5302835052 
0.5328608247 0.8447164948 0.6552835052 
1.407860825 1.594716495 1.280283505 
1.407860825 0.7197164948 0.4052835052 
0.7828608247 1.219716495 0.7802835052 
0.625 1.5 0.625 
0.375 1 0.375 
0.375 0.375 1 
1.625 1.875 1.25 
0.125 0.375 1 
0.375 0.125 1 
0.125 1 0.375 
0.375 0.75 0.125 
0.375 1 0.125 
0.125 1.25 0.375 
1.625 0.75 0.125 
0.9078608247 1.469716495 1.405283505 
0.5328608247 0.5947164948 0.9052835052 
0.4078608247 0.5947164948 1.280283505 
0.6578608247 0.4697164948 1.155283505 
0.4078608247 0.7197164948 1.405283505 
1.282860825 0.3447164948 0.6552835052 
0.6578608247 0.8447164948 1.530283505 
1.282860825 1.594716495 1.405283505 
1.532860825 1.344716495 1.155283505 
1.157860825 0.5947164948 0.5302835052 
1.532860825 0.8447164948 0.6552835052 
1.125 1.875 0.5 
1 1.625 1.625 
0.875 1.5 1.875 
1 1.625 0.375 
0.375 1 1.625 
1.125 0.125 0.5 
0.125 1.625 0.75 
0.125 0.375 1.25 
0.125 0.875 1.5 
1 0.375 0.375 
0.375 1.75 1.125 
0.875 1.75 1.875 
1 1.875 1.625 
1.125 1.875 0.25 
1.75 1.625 1.125 
0.125 0.875 1.75 
0.375 1 1.875 
1 1.625 0.125 
1.25 1.875 1.625 
1.125 0.125 0.25 
1.75 0.875 0.375 
1 0.375 0.125 
0.75 1.625 0.125 
0.375 0.125 0.75 
0.125 1.625 1.25 
0.75 0.375 0.125 
0.5328608247 0.4697164948 1.530283505 
1.532860825 1.469716495 1.530283505 
1.532860825 0.4697164948 0.5302835052 
0.5328608247 1.094716495 1.405283505 
1.157860825 1.344716495 1.530283505 
0.375 1.25 1.875 
0.375 1.75 0.875 
0.7828608247 0.3447164948 1.655283505 
1.282860825 0.3447164948 1.655283505 
1.657860825 0.7197164948 1.655283505 
1.657860825 0.3447164948 1.280283505 
1.657860825 1.219716495 1.655283505 
1.657860825 0.3447164948 0.7802835052 
1.157860825 0.5947164948 1.780283505 
0.9078608247 0.2197164948 1.405283505 
1.157860825 0.2197164948 1.405283505 
0.9078608247 0.5947164948 1.780283505 
1.407860825 0.8447164948 1.780283505 
1.407860825 0.2197164948 1.155283505 
1.782860825 1.094716495 1.405283505 
1.782860825 0.8447164948 1.405283505 
1.782860825 0.5947164948 0.9052835052 
1.782860825 0.5947164948 1.155283505 
1.532860825 0.4697164948 1.530283505 
1.5 0.125 1.875 
1.875 1.5 0.125 
0.125 0.5 0.125 
1.875 0.5 1.875 
0.5 0.125 1.875 
1.875 0.5 0.125 
1.875 1.875 1.5 
1.875 0.125 1.5 
0.125 1.5 0.125 
1.407860825 1.094716495 1.780283505 
1.407860825 0.2197164948 0.9052835052 
1.75 0.25 1.75 
0.5 1.875 0.125 
1.875 0.125 0.5 
1.875 1.875 0.5 
1.875 1.5 1.875 
0.125 1.875 1.5 
0.125 0.125 1.5 
1.5 1.875 1.875 
0.5 0.125 0.125 
0.5 1.875 1.875 
0.125 0.5 1.875 
0.125 0.125 0.5 
0.125 1.875 0.5 
1.5 1.875 0.125 
1.5 0.125 0.125 
1.75 1.75 0.25 
1.75 1.75 1.75 
0.25 0.25 1.75 
1.75 0.25 0.25 
0.25 0.25 0.25 
0.25 1.75 0.25 
0.125 1.5 1.875 
0.25 1.75 1.75 
1.407860825 1.094716495 0.5302835052 
1.625 1.125 0.25 
1.875 1.25 0.375 
0.5 1.5 1.75 
0.6578608247 1.344716495 1.530283505 
1.407860825 1.469716495 0.9052835052 
1.625 1.75 0.875 
1.875 1.625 0.75 
0.5 0.5 0.25 
0.625 0.375 0.5 
0.7828608247 0.5947164948 0.6552835052 
1.532860825 1.344716495 0.6552835052 
1.75 1.5 0.5 
SCALARS VOLUME double 1
LOOKUP_TABLE default
0.04166666667 
0.08333333333 
0.05723797251 
0.114475945 
0.05723797251 
0.114475945 
0.114475945 
0.04628436426 
0.04628436426 
0.22895189 
0.1666666667 
0.08333333333 
0.08333333333 
0.04166666667 
0.04166666667 
0.04166666667 
0.04166666667 
0.04166666667 
0.04166666667 
0.04166666667 
0.04166666667 
0.07237972509 
0.07409793814 
0.04714347079 
0.09428694158 
0.04714347079 
0.04714347079 
0.09428694158 
0.04714347079 
0.09256872852 
0.09428694158 
0.09256872852 
0.04166666667 
0.08333333333 
0.04166666667 
0.08333333333 
0.08333333333 
0.04166666667 
0.04166666667 
0.04166666667 
0.04166666667 
0.08333333333 
0.08333333333 
0.04166666667 
0.04166666667 
0.04166666667 
0.08333333333 
0.04166666667 
0.04166666667 
0.04166666667 
0.04166666667 
0.04166666667 
0.08333333333 
0.04166666667 
0.04166666667 
0.04166666667 
0.04166666667 
0.04166666667 
0.07871563574 
0.07785652921 
0.07785652921 
0.07409793814 
0.09428694158 
0.04166666667 
0.08333333333 
0.07871563574 
0.06776202749 
0.06776202749 
0.06776202749 
0.07785652921 
0.07785652921 
0.07323883162 
0.07323883162 
0.07323883162 
0.07323883162 
0.07323883162 
0.07323883161 
0.07237972509 
0.07237972509 
0.07237972509 
0.07237972509 
0.06776202749 
0.04166666667 
0.04166666667 
0.04166666667 
0.04166666667 
0.04166666667 
0.04166666667 
0.04166666667 
0.04166666667 
0.04166666667 
0.07323883162 
0.07323883162 
0.04166666667 
0.04166666667 
0.04166666667 
0.04166666667 
0.04166666667 
0.04166666667 
0.04166666667 
0.04166666667 
0.04166666667 
0.04166666667 
0.04166666667 
0.04166666667 
0.04166666667 
0.04166666667 
0.04166666667 
0.04166666667 
0.04166666667 
0.04166666667 
0.04166666667 
0.04166666667 
0.04166666667 
0.04166666667 
0.04166666667 
0.07237972509 
0.08333333333 
0.04166666667 
0.04166666667 
0.1203823024 
0.07237972509 
0.08333333333 
0.04166666667 
0.04166666667 
0.08333333333 
0.1666666667 
0.1186640893 
0.04166666667 
SCALARS PARTITION int 1
LOOKUP_TABLE default
5 
5 
11 
6 
6 
11 
3 
19 
16 
10 
5 
3 
1 
19 
1 
1 
3 
3 
3 
3 
16 
12 
1 
1 
1 
4 
8 
4 
12 
19 
8 
16 
11 
12 
12 
11 
4 
8 
6 
1 
4 
8 
6 
12 
12 
11 
19 
4 
4 
11 
12 
8 
16 
8 
11 
1 
6 
8 
2 
20 
13 
4 
12 
4 
6 
9 
9 
17 
14 
17 
14 
9 
9 
9 
9 
17 
14 
17 
17 
14 
14 
15 
15 
18 
0 
15 
2 
13 
20 
15 
5 
17 
14 
15 
5 
13 
18 
20 
7 
2 
20 
0 
7 
2 
0 
5 
18 
13 
18 
20 
2 
13 
0 
5 
7 
7 
16 
16 
16 
7 
7 
19 
19 
19 
0 
0 
8 
18 
18 
