# vtk DataFile Version 3.0
MOAB 5.0.1
ASCII
DATASET UNSTRUCTURED_GRID
POINTS 67 double
-1 -0.4 0
-1 -0.4 0.1
-0.8 -0.4125 0
-0.8 -0.4125 0.1
-0.6 -0.425 0
-1.222228092 -0.3325878455 0
-1.153073372 -0.3695518134 0
-1.078036128 -0.3923141123 0
-0.6 -0.425 0.1
-1.078036129 -0.3923141121 0.1
-1.153073374 -0.3695518125 0.1
-1.222228094 -0.3325878442 0.1
-1 -0.4 0.025
-1 -0.4 0.05
-1 -0.4 0.075
-1 -0.3 0.025
-1 -0.3 0.05
-0.8763116554 -0.3512333901 0.1
-0.7526233108 -0.3024667803 0.1
-0.8 -0.4125 0.025
-0.8 -0.4125 0.05
-0.8 -0.4125 0.075
-0.8754845318 -0.3539820895 0
-1 -0.325 0
-1 -0.375 0
-0.9469669913 -0.3530330085 0
-1.147247364 -0.330486585 0
-1.076536686 -0.3597759067 0
-1.070710678 -0.3207106783 0
-1 -0.35 0
-0.9469669913 -0.3280330085 0
-0.6754845318 -0.3664820895 0
-0.4754845318 -0.3789820895 0
-0.7509690636 -0.3079641789 0
-0.5509690636 -0.3204641789 0
-0.6 -0.425 0.025
-0.6 -0.425 0.075
-0.6 -0.425 0.05
-1.078036129 -0.3923141122 0.075
-1.222228093 -0.3325878453 0.025
-1.153073372 -0.3695518133 0.025
-1.078036128 -0.3923141123 0.025
-1.153073373 -0.3695518128 0.075
-1.222228094 -0.3325878445 0.075
-1.078036129 -0.3923141122 0.05
-1.222228093 -0.332587845 0.05
-1.153073373 -0.3695518132 0.05
-0.9414729037 -0.2942355842 0.075
-0.9414729036 -0.2942355842 0.05
-0.8851949708 -0.27716386 0.05
-1.058527096 -0.2942355841 0.05
-0.4763116554 -0.3762333901 0.1
-0.6763116554 -0.3637333901 0.1
-1 -0.375 0.1
-0.9469669916 -0.3530330088 0.1
-1 -0.325 0.1
-1.076536687 -0.3597759063 0.1
-1.147247365 -0.3304865841 0.1
-1 -0.35 0.1
-1.070710678 -0.3207106779 0.1
-0.9469669916 -0.3280330088 0.1
-1.036065699 -0.366181189 0.0125000004
-1.036051951 -0.3483793294 0.06300950183
-1.101978245 -0.334060269 0.046242396
-1.169502234 -0.3084755849 0.04603179688
-0.9637563132 -0.3625 0.0625
-1.040984825 -0.3816269624 0.02718058433
CELLS 0 0
CELL_TYPES 0
POINT_DATA 67
SCALARS GLOBAL_ID int 1
LOOKUP_TABLE default
11 
25 
59 
86 
97 
113 
114 
115 
233 
234 
235 
236 
313 
314 
315 
321 
322 
534 
537 
590 
591 
592 
593 
695 
696 
697 
704 
705 
712 
713 
714 
795 
796 
849 
850 
1058 
1064 
1066 
1077 
1079 
1081 
1082 
1083 
1084 
1085 
1087 
1088 
1120 
1121 
1122 
1140 
1381 
1382 
1480 
1481 
1482 
1490 
1491 
1497 
1498 
1499 
2172 
2173 
2175 
2178 
2179 
2180 
SCALARS LOCAL_ID_L1 int 1
LOOKUP_TABLE default
0 
1 
2 
3 
0 
10 
6 
7 
9 
9 
10 
25 
12 
13 
14 
38 
39 
52 
53 
19 
20 
21 
61 
71 
24 
72 
79 
27 
86 
87 
88 
31 
13 
97 
20 
25 
30 
31 
38 
131 
40 
41 
42 
133 
44 
135 
46 
145 
146 
147 
160 
48 
44 
53 
170 
171 
56 
179 
185 
186 
187 
244 
245 
247 
250 
251 
66 
