# vtk DataFile Version 3.0
MOAB 5.0.1
ASCII
DATASET UNSTRUCTURED_GRID
POINTS 208 double
0.3279861953 0.6282144594 0.352081097
0.217262812 0.5170611576 0.6228180287
0.2174594293 0.6434232644 0.650216997
0.305206235 0.5085413838 0.5294944084
0.2458623363 0.664168433 0.3297129137
0.04089170894 0.5181786299 0.5641062785
0 0.5850506824 0.5485531183
0.2352190645 0.6119836287 0.3516848834
0 0.4467342431 0.5647374911
0.1753327859 0.6370661568 0.6972887953
0.1896777063 0.7175456459 0.6532758912
0.09888795896 0.5012851339 0.6525062042
0.1451182589 0.5798372712 0.6058299754
0.1042265499 0.5083928845 0.6064611879
0.3979733658 0.5247722146 0.529890622
0.2031145089 0.5629437753 0.694229901
0.3843399459 0.5530119784 0.4615376441
0.302216087 0.5889659519 0.4391694607
0.2487122735 0.509202764 0.6678362628
0.1723765479 0.6795214218 0.5368457849
0.1918295319 0.6787158578 0.4895069592
0.2112825159 0.6779102938 0.4421681335
0.2200922281 0.6249199255 0.4168012774
0.1855176434 0.6268627243 0.2953711046
0.239702629 0.5468625275 0.3085404589
0.3066996515 0.5238448508 0.3960250363
0.2586426753 0.4489086606 0.325794717
0.3324697598 0.5630933583 0.3089366726
0.2503459009 0.5990473319 0.2865684893
0 0.5487999866 0.4799926324
0 0.476298595 0.3428716605
0 0.5125492908 0.4114321465
0.09940284216 0.5503085081 0.3481176592
0.1748743715 0.57467792 0.3173430743
0.04970142108 0.5185146703 0.3047442381
0 0.7233671216 0.5323687455
0 0.4600506824 0.6735531183
0 0.4333944238 0.4953660014
0 0.6050439771 0.3968697813
0 0.5458824048 0.3291202991
0 0.6642055493 0.4646192634
0 0.6975386634 0.3823074161
0 0.6154662146 0.3153689377
0 0.5950380118 0.6614148387
0 0.7300253412 0.6492765592
0.321826488 0.5109085539 0.3309086423
0.2038260094 0.6716630282 0.581864019
0.2126357215 0.6186726599 0.5564971629
0.2320887055 0.617867096 0.5091583372
0.2262691414 0.5904328961 0.6248501409
0.2350788536 0.5374425278 0.5994832849
0.3142125645 0.5819131224 0.5315265205
0.244085183 0.6108142664 0.601515397
0.2036293921 0.5453009214 0.5544650507
0.1145296786 0.4906992779 0.2959416228
0.1642310997 0.5224931156 0.3393150439
0.2290593572 0.4946777232 0.3305124286
0.2489088908 0.6355648709 0.6952352311
0.3414794043 0.5254335948 0.6682324765
0.3211561333 0.491012085 0.4564237188
0.07644482691 0.582515266 0.6095200822
0.1119979449 0.6468519022 0.6549338859
0.07644482691 0.7208317052 0.5933357094
0.1344410769 0.5656217701 0.6979200078
0.1528896538 0.7182962889 0.6543026734
0.04089170894 0.7948115083 0.531737533
0.03555311798 0.6493873185 0.593966922
0.3949832178 0.6051967827 0.4395656744
0.02431165977 0.4977822989 0.5282263777
0.1948196799 0.5982912897 0.5798319068
0.131484839 0.608077035 0.5374769974
0.02431165977 0.5769371659 0.4442925228
0.02431165977 0.5044357743 0.3071715509
0.200639244 0.6257254895 0.4641401031
0.0652033687 0.5692266856 0.5275951651
0.1060950776 0.6406710723 0.5269639526
0.08178341787 0.5896230166 0.563475066
0.1840591949 0.6053291585 0.4282602023
0.1392164496 0.6387287598 0.4650859831
0.09832474062 0.5539445538 0.396345706
0.1237145019 0.5680234498 0.3939183932
0.1480261617 0.5857383915 0.4397191271
0.1557964987 0.6591250908 0.500965884
0.04862331954 0.5354905353 0.4223437746
0.09832474062 0.5672843731 0.4657171957
0.1597475351 0.5876142168 0.3824594683
0.04862331954 0.5488303546 0.4917152643
0.07401308085 0.4895566787 0.3634853297
0.04862331954 0.522150716 0.3529722849
0.02431165977 0.5635973465 0.3749210331
0.09940284216 0.5036355747 0.3610580168
0.2307354999 0.6771047299 0.3948293078
0.2260725241 0.4640707893 0.5974511727
0.1130362621 0.4554025162 0.5810943319
0.153927971 0.5268469029 0.5804631193
0.3235026307 0.6933355606 0.3952255215
0.1622227999 0.4914993886 0.6948611135
0.2084530998 0.5700515259 0.6481848848
0.3994667823 0.5400756815 0.39642125
0.3173429234 0.5760296551 0.3740530667
0.3120360155 0.6692961256 0.2919604167
0.2773682043 0.7081310455 0.6499285176
0.2579152203 0.7089366095 0.6972673433
0.2264657588 0.716795003 0.6522491091
0.3594920632 0.6721770719 0.6722967009
0.3354991082 0.686282731 0.4875825813
0.4069796953 0.5981439531 0.5319227342
0.3368523138 0.6270450972 0.6019116107
0.2667249324 0.6559462412 0.6719004872
0.2547284549 0.6629990707 0.5795434274
0.2427319774 0.6700519003 0.4871863676
0.3128593589 0.6411507563 0.4171974911
0.3248558363 0.6340979267 0.5095545509
0.3504857337 0.5988053334 0.6702645887
0.2577186029 0.5825745026 0.669868375
0.3278459844 0.5536733586 0.5998794985
0.2352754709 0.6638046347 0.6268822531
0.2232789934 0.6708574643 0.5345251933
0.1491042632 0.5354294125 0.404431438
0.1988056843 0.5205503169 0.4607452167
0.173415923 0.5531443542 0.4502321719
0.1491042632 0.4887564791 0.4173717956
0.1237145019 0.5213505164 0.4068587508
0.2915728151 0.5367811476 0.4611414304
0.2214454337 0.5656822916 0.5311303069
0.2094489562 0.5727351212 0.4387732471
0.2139325207 0.50761402 0.3956288226
0.2245757926 0.5597988244 0.373656853
0.2283890025 0.4747812543 0.4560275051
0.2124391042 0.4923105531 0.5290981947
0.1642310997 0.4758201823 0.3522554015
0.1899959722 0.5735406852 0.4861120728
0.18118626 0.6265310535 0.5114789288
0.07401308085 0.5162363173 0.5022283091
0.02431165977 0.4844424796 0.458854888
0.04970142108 0.4651882616 0.5387394225
0.04970142108 0.4518484423 0.4693679328
0.09940284216 0.48364228 0.5127413539
0.04970142108 0.4385086229 0.3999964431
0.02431165977 0.4711026603 0.3894833983
0.1237145019 0.5346903358 0.4762302405
0.1491042632 0.5020962984 0.4867432853
0.09940284216 0.4703024607 0.4433698642
0.07401308085 0.502896498 0.4328568194
0.09059313002 0.5366326483 0.53810821
0.1627376831 0.4738565346 0.5550962633
0.1402945511 0.5550866667 0.5121101414
0.1646062109 0.6061347225 0.475599028
0.1149047898 0.5876807041 0.5015970965
0.04862331954 0.6154965827 0.3270915696
0.07401308085 0.5829025454 0.3376046144
0.0729349793 0.6332115244 0.3728923035
0.09832474062 0.6006174871 0.3834053483
0.04862331954 0.5688236494 0.3400319272
0.09724663907 0.6509264661 0.4186930375
0.0729349793 0.5865385911 0.3858326612
0.1226364004 0.6183324288 0.4292060823
0.07401308085 0.536229612 0.350544972
0.1206893859 0.6546781167 0.30417372
0.08465635272 0.6350873497 0.3156326448
0.110046114 0.6024933124 0.3261456896
0.1810340788 0.6919838255 0.3385155291
0.170390807 0.6397990211 0.3604874987
0.1450010457 0.6723930584 0.3499744539
0.1693127054 0.6901080002 0.3957751878
0.1947024667 0.6575139628 0.4062882326
0.1332796723 0.6705172332 0.4072341126
0.1586694336 0.6379231958 0.4177471575
0.1089680125 0.6528022914 0.3614333787
0.1343577738 0.6202082541 0.3719464235
0.1027706116 0.6863548159 0.3942427892
0.07845895186 0.6686398742 0.3484420553
0.114491985 0.6882306412 0.3369831305
0.0729349793 0.7381948496 0.4390197781
0.1138266882 0.6713227971 0.4545729383
0.1304067374 0.6917191281 0.4904528392
0.1060950776 0.7789875116 0.5107795798
0.0729349793 0.5998784104 0.4552041509
0.1498597214 0.6909135641 0.4431140135
0.1664397706 0.7113098951 0.4789939144
0.1226751268 0.6610674033 0.5628438535
0.1860099678 0.651281658 0.6051987629
0.1173365358 0.6539596527 0.6088888697
0.1582282448 0.7254040395 0.6082576571
0.1806713768 0.6441739074 0.6512437791
0.1397796679 0.5727295207 0.6518749916
0.08951502847 0.6202747414 0.4910840517
0.1752494827 0.6583195268 0.4536270583
0.04862331954 0.7204799079 0.3932190442
0.02431165977 0.7027649662 0.3474183102
0.04089170894 0.6564950691 0.5479219058
0.02431165977 0.6360987381 0.5120420049
0.04862331954 0.6871467939 0.4755308915
0.08178341787 0.7279394558 0.5472906932
0.0652033687 0.7075431248 0.5114107924
0.04862331954 0.5821634687 0.4094034169
0.02431165977 0.6102702799 0.3619806754
0.02431165977 0.7152536051 0.42810815
0.3188396549 0.48030162 0.5978473864
0.1675613909 0.4986071391 0.6488160973
0.2308962319 0.4888213938 0.6911710067
0.2399025613 0.5621931323 0.6932031189
0.03555311798 0.5243873185 0.718966922
0.03555311798 0.5110708793 0.6101512948
0.07110623595 0.5754075154 0.6555650984
0.1066593539 0.6397441516 0.7009789021
0.07110623595 0.7137239547 0.6393807257
0.03555311798 0.6560455381 0.7108747356
CELLS 1360 5447
3 15 185 9
3 185 63 9
3 15 96 185
3 99 28 0
3 28 7 0
3 99 0 7
3 99 7 28
3 7 67 0
3 99 0 67
3 99 67 7
3 4 0 100
3 100 0 95
3 4 0 95
3 4 95 100
3 95 0 111
3 111 7 0
3 7 4 0
3 111 0 4
3 111 4 7
3 95 4 111
3 67 111 0
3 7 67 111
3 57 18 49
3 18 1 49
3 57 49 1
3 57 1 18
3 2 57 49
3 2 49 1
3 2 1 57
3 53 92 94
3 92 1 94
3 53 94 1
3 53 1 92
3 70 12 69
3 12 1 69
3 70 69 1
3 70 1 12
3 1 53 69
3 70 69 53
3 70 53 1
3 1 12 94
3 12 70 94
3 1 94 70
3 53 94 70
3 1 92 49
3 92 53 49
3 1 49 53
3 2 53 69
3 2 69 1
3 2 1 53
3 53 2 49
3 1 92 18
3 92 49 18
3 1 97 12
3 97 69 12
3 1 69 97
3 97 2 69
3 1 2 97
3 199 97 1
3 97 200 1
3 199 1 200
3 199 200 97
3 97 12 199
3 1 199 12
3 13 199 12
3 13 12 1
3 13 1 199
3 13 12 94
3 13 94 1
3 1 97 201
3 97 200 201
3 1 201 200
3 2 97 201
3 2 201 1
3 1 201 57
3 57 2 201
3 15 10 2
3 103 57 2
3 103 2 46
3 2 19 46
3 103 49 46
3 2 46 49
3 2 49 103
3 103 57 49
3 2 69 46
3 69 19 46
3 2 19 69
3 46 53 69
3 2 53 46
3 53 46 49
3 181 97 184
3 97 2 184
3 181 184 2
3 181 2 97
3 10 184 2
3 10 2 181
3 10 181 184
3 15 97 2
3 15 2 184
3 15 184 97
3 10 184 15
3 97 181 69
3 2 69 181
3 19 69 181
3 19 181 2
3 3 16 59
3 51 16 3
3 16 115 3
3 51 3 115
3 51 115 16
3 18 3 115
3 18 115 51
3 18 51 3
3 115 3 14
3 14 18 3
3 14 115 18
3 123 16 59
3 123 59 3
3 123 3 16
3 3 129 92
3 128 129 3
3 3 123 129
3 128 129 123
3 128 123 3
3 3 59 128
3 123 59 128
3 123 3 51
3 123 51 16
3 129 92 50
3 92 3 50
3 129 50 3
3 51 50 3
3 51 3 129
3 51 129 50
3 123 129 51
3 18 92 3
3 18 3 50
3 18 50 92
3 51 50 18
3 14 3 198
3 18 198 3
3 14 18 198
3 4 7 91
3 7 111 91
3 4 91 111
3 4 91 161
3 161 7 91
3 161 4 7
3 7 161 23
3 5 76 144
3 76 13 144
3 5 144 13
3 5 13 76
3 5 144 135
3 5 93 144
3 93 144 13
3 93 13 5
3 8 5 68
3 5 76 74
3 76 144 74
3 5 74 144
3 5 74 68
3 74 133 68
3 5 68 133
3 5 133 74
3 5 135 133
3 133 74 144
3 133 144 5
3 135 133 144
3 6 8 5
3 6 5 68
3 6 68 8
3 76 60 13
3 5 13 60
3 5 60 76
3 11 13 60
3 11 60 5
3 11 5 13
3 190 76 74
3 190 74 5
3 190 5 76
[...]
POINT_DATA 208
SCALARS GLOBAL_ID int 1
LOOKUP_TABLE default
28 
30 
32 
46 
50 
52 
74 
83 
95 
191 
192 
193 
209 
210 
211 
215 
241 
242 
243 
244 
245 
246 
247 
255 
262 
271 
272 
274 
278 
294 
295 
296 
322 
323 
324 
501 
511 
581 
589 
590 
591 
593 
596 
611 
614 
1218 
1298 
1299 
1300 
1301 
1302 
1303 
1304 
1305 
1427 
1432 
1436 
1456 
1465 
1478 
1498 
1499 
1500 
1504 
1505 
1507 
1511 
1630 
1690 
1691 
1692 
1693 
1694 
1695 
1696 
1697 
1698 
1699 
1700 
1701 
1702 
1703 
1704 
1705 
1706 
1707 
1708 
1709 
1710 
1711 
1712 
1728 
1826 
1837 
1838 
1861 
1862 
1863 
2280 
2281 
2604 
3044 
3087 
3089 
3106 
3116 
3121 
3122 
3123 
3124 
3125 
3126 
3127 
3139 
3142 
3143 
3153 
3154 
3220 
3221 
3222 
3223 
3224 
3226 
3227 
3228 
3232 
3233 
3235 
3236 
3240 
3244 
3245 
3259 
3260 
3261 
3262 
3263 
3264 
3265 
3266 
3267 
3268 
3269 
3279 
3280 
3281 
3296 
3297 
3837 
3839 
3840 
3841 
3842 
3843 
3844 
3845 
3846 
3855 
3856 
3857 
3858 
3859 
3860 
3862 
3863 
3864 
3865 
3866 
3867 
3886 
3888 
3904 
3912 
3915 
3917 
3925 
3930 
3934 
3935 
3938 
3939 
3962 
3963 
3964 
3965 
3967 
3968 
3971 
3972 
3990 
3991 
3992 
3993 
3994 
4005 
4006 
4007 
4384 
4429 
4430 
4504 
4716 
4717 
4718 
4719 
4850 
4866 
SCALARS LOCAL_ID_L1 int 1
LOOKUP_TABLE default
0 
1 
2 
3 
4 
5 
6 
7 
8 
9 
10 
11 
12 
13 
14 
15 
16 
17 
18 
19 
20 
21 
22 
23 
24 
25 
26 
27 
28 
29 
30 
31 
32 
33 
34 
35 
36 
37 
38 
39 
40 
41 
42 
43 
44 
45 
46 
47 
48 
49 
50 
51 
52 
53 
54 
55 
56 
57 
58 
59 
60 
61 
62 
63 
64 
65 
66 
67 
68 
69 
70 
71 
72 
73 
74 
75 
76 
77 
78 
79 
80 
81 
82 
83 
84 
85 
86 
87 
88 
89 
90 
91 
92 
93 
94 
95 
96 
97 
98 
99 
100 
101 
102 
103 
104 
105 
106 
107 
108 
109 
110 
111 
112 
113 
114 
115 
116 
117 
118 
119 
120 
121 
122 
123 
124 
125 
126 
127 
128 
129 
130 
131 
132 
133 
134 
135 
136 
137 
138 
139 
140 
141 
142 
143 
144 
145 
146 
147 
148 
149 
150 
151 
152 
153 
154 
155 
156 
157 
158 
159 
160 
161 
162 
163 
164 
165 
166 
167 
168 
169 
170 
171 
172 
173 
174 
175 
176 
177 
178 
179 
180 
181 
182 
183 
184 
185 
186 
187 
188 
189 
190 
191 
192 
193 
194 
195 
196 
197 
198 
199 
200 
201 
202 
203 
204 
205 
206 
207 
CELL_DATA 1360
SCALARS GLOBAL_ID int 1
LOOKUP_TABLE default
721 
724 
727 
1238 
1239 
1240 
1241 
1242 
1243 
1244 
1263 
1267 
1269 
1270 
1286 
1288 
1289 
1290 
1291 
1292 
1294 
1295 
1372 
1373 
1374 
1375 
1376 
1377 
1378 
1379 
1380 
1381 
1382 
1383 
1384 
1385 
1386 
1387 
1388 
1389 
1390 
1391 
1392 
1393 
1394 
1395 
1396 
1397 
1398 
1399 
1400 
1401 
1402 
1403 
1404 
1405 
1406 
1407 
1412 
1413 
1414 
1415 
1423 
1424 
1425 
1426 
1427 
1428 
1429 
1435 
1436 
1437 
1447 
1448 
1450 
1451 
1485 
1486 
1492 
1494 
1497 
1498 
1499 
1500 
1501 
1502 
1503 
1504 
1505 
1506 
1507 
1508 
1509 
1510 
1511 
1512 
1513 
1516 
1517 
1518 
1519 
1520 
1521 
1522 
1523 
2220 
2235 
2236 
2237 
2238 
2239 
2240 
2241 
2242 
2244 
2245 
2246 
2247 
2248 
2252 
2254 
2256 
2257 
2258 
2261 
2262 
2265 
2266 
2267 
2268 
2269 
2270 
2271 
2272 
2273 
2274 
2275 
2276 
2277 
2286 
2288 
2289 
2407 
2408 
2409 
2422 
2423 
2424 
2425 
2467 
2468 
2469 
2470 
2471 
2474 
2477 
2478 
2480 
2482 
2483 
2484 
2485 
2486 
2487 
2488 
2490 
2491 
2492 
2493 
2494 
2495 
2496 
2497 
2498 
2499 
2500 
2501 
2502 
2503 
2504 
2505 
2506 
2507 
2508 
2509 
2510 
2511 
2512 
2513 
2520 
2522 
2523 
2524 
2525 
2526 
2527 
3508 
3509 
3510 
3511 
3512 
3513 
3514 
3515 
3516 
3517 
3518 
3519 
3520 
3521 
3522 
3523 
3524 
3525 
3526 
3527 
3528 
3529 
3530 
3531 
3532 
3533 
3534 
3682 
3841 
3843 
3844 
3845 
3846 
3847 
3848 
3849 
3850 
3851 
3852 
3853 
3854 
3855 
3856 
3857 
3858 
3859 
3860 
3861 
3862 
3863 
3864 
3865 
3866 
3867 
3868 
3869 
3870 
3871 
3872 
3877 
3878 
3879 
3880 
3881 
3882 
3883 
3884 
3885 
3886 
3887 
3888 
3889 
3890 
3892 
3893 
5976 
6853 
6854 
6855 
6856 
6857 
6858 
6859 
6860 
6861 
6862 
6863 
6864 
6865 
6866 
6867 
6868 
6869 
6870 
6871 
6872 
6873 
6874 
6875 
6876 
6877 
6878 
6911 
6917 
6918 
6919 
6920 
6921 
6922 
6923 
6924 
6934 
6935 
6936 
6937 
6943 
6958 
6959 
6960 
7660 
7661 
7662 
7663 
7664 
7665 
7666 
7667 
7668 
7669 
7670 
7671 
7672 
7673 
7674 
7675 
7676 
7677 
7678 
7679 
7680 
7681 
7682 
7683 
7684 
7685 
7686 
7687 
7688 
7689 
7690 
7691 
7692 
7693 
7694 
7695 
7696 
7697 
7698 
7699 
7700 
7701 
7709 
7710 
7745 
7746 
7747 
7761 
7762 
8808 
8809 
8810 
8814 
8820 
8831 
8832 
8833 
8834 
8836 
8839 
8841 
8842 
8843 
8844 
8845 
8846 
8847 
8848 
8849 
8850 
8851 
8852 
8853 
8854 
8855 
8856 
8857 
8858 
8859 
8860 
8861 
8862 
8863 
8864 
8865 
8866 
8867 
8868 
8869 
8870 
8871 
8872 
8873 
8874 
8875 
8876 
8877 
8878 
8879 
8880 
8881 
8882 
8885 
8887 
8888 
8889 
8890 
8894 
8896 
8897 
8898 
8899 
8900 
8919 
8923 
8924 
8925 
8926 
8927 
8928 
8929 
8930 
8931 
8932 
8933 
8934 
8935 
8941 
8943 
8944 
8951 
8953 
8954 
8955 
8956 
8974 
8977 
8980 
8982 
8983 
8984 
8985 
8986 
8987 
8988 
8989 
8990 
8991 
8992 
8998 
9000 
9001 
9002 
9003 
9013 
9014 
9015 
9016 
9017 
9021 
9022 
9023 
9024 
9025 
9026 
9027 
9028 
9029 
9042 
9043 
9044 
9045 
9049 
9050 
9056 
9059 
9060 
9061 
9062 
9063 
9064 
9065 
9066 
9067 
9068 
9069 
9070 
9071 
9072 
9073 
9074 
9075 
9076 
9077 
9347 
9350 
9559 
9560 
9561 
9562 
9563 
9564 
9565 
9566 
9567 
9568 
9569 
9570 
9571 
9572 
9573 
9574 
9575 
9576 
9577 
9578 
9582 
9595 
10017 
10018 
10019 
10021 
10022 
10023 
10024 
10025 
10026 
10027 
10032 
10034 
10574 
10575 
10576 
10577 
10580 
10581 
10582 
10583 
10584 
10585 
10586 
10589 
10590 
10591 
10594 
10595 
10596 
10597 
10598 
10599 
10602 
10603 
10606 
10607 
10608 
10610 
10611 
10612 
10613 
10614 
11503 
11504 
11505 
11506 
11507 
11508 
11509 
11510 
11511 
11512 
11513 
11514 
11515 
11516 
11519 
11520 
11521 
11522 
11530 
11533 
11534 
11535 
11536 
11537 
11538 
11539 
11540 
11541 
11542 
11545 
11546 
11547 
11548 
11549 
11550 
11551 
11552 
11553 
11557 
11562 
11585 
11586 
11587 
13330 
16181 
16485 
16486 
17378 
17398 
17400 
17451 
17452 
17453 
17454 
17455 
17456 
17457 
17458 
17459 
17460 
17461 
17462 
17463 
17466 
17467 
17468 
17469 
17473 
17474 
17492 
17496 
17497 
17645 
17646 
17647 
17652 
17653 
29233 
29236 
29238 
29239 
29240 
29241 
29242 
29243 
29244 
29245 
29246 
29247 
29248 
29249 
29250 
29252 
29253 
29254 
29255 
29256 
29257 
29258 
29259 
29260 
29261 
29262 
29263 
29264 
29265 
29266 
29267 
29268 
29269 
29270 
29271 
29272 
29273 
29274 
29275 
29276 
29277 
29278 
29279 
29280 
29281 
29282 
29283 
29284 
29285 
29286 
29287 
29288 
29289 
29290 
29291 
29292 
29293 
29294 
29295 
29296 
29297 
29298 
29299 
29300 
29301 
29302 
29303 
29304 
29305 
29306 
29307 
29308 
29309 
29310 
29311 
29312 
29313 
29314 
29315 
29316 
29317 
29318 
29319 
29320 
29321 
29322 
29323 
29324 
29325 
29326 
29328 
29329 
29330 
29331 
29332 
29333 
29334 
29335 
29336 
29337 
29338 
29339 
29340 
29341 
29342 
29343 
29344 
29345 
29346 
29347 
29348 
29349 
29350 
29351 
29352 
29353 
29354 
31823 
31824 
31825 
31826 
31828 
31830 
31831 
31832 
31835 
31836 
31843 
31844 
31845 
31846 
32199 
32449 
32450 
32596 
32597 
32598 
32599 
32600 
32601 
32602 
32605 
32606 
32612 
32615 
32616 
32617 
32618 
32619 
32620 
32621 
32631 
32636 
32637 
32638 
32646 
32647 
32667 
32668 
32841 
32843 
32846 
32847 
32848 
32886 
32887 
32888 
32893 
34777 
34778 
34779 
34780 
35633 
35634 
35635 
35636 
35637 
35638 
35639 
35640 
35641 
35642 
35643 
35644 
35645 
35646 
35647 
35648 
35649 
35650 
35651 
35652 
35653 
35654 
35655 
35656 
35657 
35658 
35659 
35660 
35661 
35662 
35663 
35664 
35665 
35666 
35667 
35668 
35669 
35670 
35671 
35672 
35673 
35674 
35675 
35676 
35677 
35678 
35679 
35680 
35681 
35682 
35683 
35684 
35685 
35686 
35687 
35688 
35689 
35690 
35691 
35692 
35694 
35696 
35697 
35698 
35700 
35701 
35702 
35703 
35704 
35707 
35708 
35709 
35711 
35712 
35713 
35714 
35715 
35716 
35717 
35718 
35719 
35720 
35721 
35722 
35723 
35724 
35725 
35726 
35727 
35728 
35729 
35730 
35731 
35732 
35733 
35734 
35735 
35736 
35737 
35738 
35739 
35740 
35741 
35742 
35743 
35744 
35745 
35746 
35747 
35748 
35749 
35750 
35751 
35752 
35753 
35754 
35755 
35756 
35757 
35758 
35759 
35761 
35763 
35764 
35767 
35768 
35769 
35770 
35771 
35774 
35775 
35776 
35777 
35778 
35779 
35787 
35788 
35789 
35790 
35791 
35792 
35793 
35794 
35795 
35796 
35797 
35798 
35799 
35800 
35801 
35802 
35803 
35804 
35805 
35806 
35807 
35808 
35809 
35810 
35811 
35812 
35813 
35814 
35815 
35816 
35817 
35818 
35819 
35820 
35821 
35822 
35823 
35824 
35825 
35826 
35827 
35828 
35829 
35830 
35831 
35832 
35833 
35834 
35835 
35838 
35839 
35840 
35841 
35842 
35843 
35844 
35846 
35847 
35848 
35849 
35850 
35851 
35852 
35853 
35854 
35855 
35856 
35857 
35858 
35859 
35860 
35861 
35862 
35863 
35864 
35866 
35868 
35869 
35870 
35871 
35872 
35873 
35874 
35875 
35876 
35877 
35878 
35879 
35880 
35881 
35882 
35883 
35884 
35885 
35886 
35887 
35888 
35889 
35890 
35891 
35892 
35893 
35894 
35895 
35896 
35897 
35898 
35899 
35900 
35901 
35902 
35903 
35904 
35905 
35906 
35907 
35908 
35909 
35910 
35911 
35912 
35913 
35914 
35915 
35916 
35917 
35918 
35919 
35920 
35921 
35922 
35923 
35924 
35925 
35926 
35927 
35928 
35929 
35930 
35931 
35932 
35933 
35934 
35935 
35936 
35937 
35938 
35939 
35940 
35941 
35942 
35943 
35944 
35945 
35946 
35950 
35951 
35952 
35953 
35954 
35955 
35956 
35957 
35958 
35959 
35960 
35961 
35962 
35963 
35964 
35965 
35966 
35967 
35968 
35969 
35970 
35971 
35972 
35973 
35974 
35975 
35976 
35977 
35978 
35979 
35980 
35981 
35982 
35983 
35984 
35985 
35986 
35987 
35988 
35989 
35990 
36005 
36007 
36008 
36009 
36659 
37877 
37880 
44803 
44845 
44846 
44847 
44848 
44849 
44858 
45177 
45268 
45269 
45270 
45272 
45273 
45799 
45800 
45801 
45802 
45803 
45804 
45805 
45806 
45807 
45808 
45809 
45810 
45811 
45812 
45813 
45814 
45815 
45816 
45817 
45820 
45821 
45822 
45823 
45824 
45825 
45829 
45830 
45832 
45841 
45842 
45843 
45844 
45845 
45846 
45847 
45848 
45849 
45850 
45851 
45852 
45858 
45871 
45872 
45875 
45878 
45959 
45960 
45962 
45963 
45964 
45965 
45997 
45998 
45999 
46000 
46001 
46006 
46007 
46020 
48868 
48883 
48886 
48887 
48888 
48889 
48890 
48891 
48894 
48895 
48896 
48897 
48898 
48899 
48900 
48901 
48902 
48903 
48904 
48907 
48908 
48909 
48910 
48918 
48920 
48921 
48922 
48923 
48924 
48925 
48926 
48927 
48928 
48929 
48930 
48931 
48932 
48933 
48934 
48935 
48936 
48937 
48938 
48939 
48940 
48941 
48942 
48943 
48944 
48945 
48946 
48947 
48948 
48949 
48950 
48951 
48952 
48953 
48954 
48955 
48956 
48957 
48958 
48959 
48960 
48963 
48973 
48974 
48975 
48976 
48977 
48978 
48980 
48981 
48982 
48983 
48986 
48987 
48989 
48990 
48991 
48992 
48993 
49044 
49045 
49046 
49047 
49048 
49050 
49060 
49061 
49062 
49063 
49064 
49067 
49069 
49070 
49071 
49072 
49073 
49074 
49086 
49088 
49089 
49090 
49091 
49107 
49108 
49109 
49110 
49111 
49124 
49665 
49667 
49668 
49669 
49670 
49840 
49841 
56021 
56036 
56038 
56039 
56045 
56080 
56083 
SCALARS LOCAL_ID_L1 int 1
LOOKUP_TABLE default
0 
1 
2 
3 
4 
5 
6 
7 
8 
9 
10 
11 
12 
13 
14 
15 
16 
17 
18 
19 
20 
21 
22 
23 
24 
25 
26 
27 
28 
29 
30 
31 
32 
33 
34 
35 
36 
37 
38 
39 
40 
41 
42 
43 
44 
45 
46 
47 
48 
49 
50 
51 
52 
53 
54 
55 
56 
57 
58 
59 
60 
61 
62 
63 
64 
65 
66 
67 
68 
69 
70 
71 
72 
73 
74 
75 
76 
77 
78 
79 
80 
81 
82 
83 
84 
85 
86 
87 
88 
89 
90 
91 
92 
93 
94 
95 
96 
97 
98 
99 
100 
101 
102 
103 
104 
105 
106 
107 
108 
109 
110 
111 
112 
113 
114 
115 
116 
117 
118 
119 
120 
121 
122 
123 
124 
125 
126 
127 
128 
129 
130 
131 
132 
133 
134 
135 
136 
137 
138 
139 
140 
141 
142 
143 
144 
145 
146 
147 
148 
149 
150 
151 
152 
153 
154 
155 
156 
157 
158 
159 
160 
161 
162 
163 
164 
165 
166 
167 
168 
169 
170 
171 
172 
173 
174 
175 
176 
177 
178 
179 
180 
181 
182 
183 
184 
185 
186 
187 
188 
189 
190 
191 
192 
193 
194 
195 
196 
197 
198 
199 
200 
201 
202 
203 
204 
205 
206 
207 
208 
209 
210 
211 
212 
213 
214 
215 
216 
217 
218 
219 
220 
221 
222 
223 
224 
225 
226 
227 
228 
229 
230 
231 
232 
233 
234 
235 
236 
237 
238 
239 
240 
241 
242 
243 
244 
245 
246 
247 
248 
249 
250 
251 
252 
253 
254 
255 
256 
257 
258 
259 
260 
261 
262 
263 
264 
265 
266 
267 
268 
269 
270 
271 
272 
273 
274 
275 
276 
277 
278 
279 
280 
281 
282 
283 
284 
285 
286 
287 
288 
289 
290 
291 
292 
293 
294 
295 
296 
297 
298 
299 
300 
301 
302 
303 
304 
305 
306 
307 
308 
309 
310 
311 
312 
313 
314 
315 
316 
317 
318 
319 
320 
321 
322 
323 
324 
325 
326 
327 
328 
329 
330 
331 
332 
333 
334 
335 
336 
337 
338 
339 
340 
341 
342 
343 
344 
345 
346 
347 
348 
349 
350 
351 
352 
353 
354 
355 
356 
357 
358 
359 
360 
361 
362 
363 
364 
365 
366 
367 
368 
369 
370 
371 
372 
373 
374 
375 
376 
377 
378 
379 
380 
381 
382 
383 
384 
385 
386 
387 
388 
389 
390 
391 
392 
393 
394 
395 
396 
397 
398 
399 
400 
401 
402 
403 
404 
405 
406 
407 
408 
409 
410 
411 
412 
413 
414 
415 
416 
417 
418 
419 
420 
421 
422 
423 
424 
425 
426 
427 
428 
429 
430 
431 
432 
433 
434 
435 
436 
437 
438 
439 
440 
441 
442 
443 
444 
445 
446 
447 
448 
449 
450 
451 
452 
453 
454 
455 
456 
457 
458 
459 
460 
461 
462 
463 
464 
465 
466 
467 
468 
469 
470 
471 
472 
473 
474 
475 
476 
477 
478 
479 
480 
481 
482 
483 
484 
485 
486 
487 
488 
489 
490 
491 
492 
493 
494 
495 
496 
497 
498 
499 
500 
501 
502 
503 
504 
505 
506 
507 
508 
509 
510 
511 
512 
513 
514 
515 
516 
517 
518 
519 
520 
521 
522 
523 
524 
525 
526 
527 
528 
529 
530 
531 
532 
533 
534 
535 
536 
537 
538 
539 
540 
541 
542 
543 
544 
545 
546 
547 
548 
549 
550 
551 
552 
553 
554 
555 
556 
557 
558 
559 
560 
561 
562 
563 
564 
565 
566 
567 
568 
569 
570 
571 
572 
573 
574 
575 
576 
577 
578 
579 
580 
581 
582 
583 
584 
585 
586 
587 
588 
589 
590 
591 
592 
593 
594 
595 
596 
597 
598 
599 
600 
601 
602 
603 
604 
605 
606 
607 
608 
609 
610 
611 
612 
613 
614 
615 
616 
617 
618 
619 
620 
621 
622 
623 
624 
625 
626 
627 
628 
629 
630 
631 
632 
633 
634 
635 
636 
637 
638 
639 
640 
641 
642 
643 
644 
645 
646 
647 
648 
649 
650 
651 
652 
653 
654 
655 
656 
657 
658 
659 
660 
661 
662 
663 
664 
665 
666 
667 
668 
669 
670 
671 
672 
673 
674 
675 
676 
677 
678 
679 
680 
681 
682 
683 
684 
685 
686 
687 
688 
689 
690 
691 
692 
693 
694 
695 
696 
697 
698 
699 
700 
701 
702 
703 
704 
705 
706 
707 
708 
709 
710 
711 
712 
713 
714 
715 
716 
717 
718 
719 
720 
721 
722 
723 
724 
725 
726 
727 
728 
729 
730 
731 
732 
733 
734 
735 
736 
737 
738 
739 
740 
741 
742 
743 
744 
745 
746 
747 
748 
749 
750 
751 
752 
753 
754 
755 
756 
757 
758 
759 
760 
761 
762 
763 
764 
765 
766 
767 
768 
769 
770 
771 
772 
773 
774 
775 
776 
777 
778 
779 
780 
781 
782 
783 
784 
785 
786 
787 
788 
789 
790 
791 
792 
793 
794 
795 
796 
797 
798 
799 
800 
801 
802 
803 
804 
805 
806 
807 
808 
809 
810 
811 
812 
813 
814 
815 
816 
817 
818 
819 
820 
821 
822 
823 
824 
825 
826 
827 
828 
829 
830 
831 
832 
833 
834 
835 
836 
837 
838 
839 
840 
841 
842 
843 
844 
845 
846 
847 
848 
849 
850 
851 
852 
853 
854 
855 
856 
857 
858 
859 
860 
861 
862 
863 
864 
865 
866 
867 
868 
869 
870 
871 
872 
873 
874 
875 
876 
877 
878 
879 
880 
881 
882 
883 
884 
885 
886 
887 
888 
889 
890 
891 
892 
893 
894 
895 
896 
897 
898 
899 
900 
901 
902 
903 
904 
905 
906 
907 
908 
909 
910 
911 
912 
913 
914 
915 
916 
917 
918 
919 
920 
921 
922 
923 
924 
925 
926 
927 
928 
929 
930 
931 
932 
933 
934 
935 
936 
937 
938 
939 
940 
941 
942 
943 
944 
945 
946 
947 
948 
949 
950 
951 
952 
953 
954 
955 
956 
957 
958 
959 
960 
961 
962 
963 
964 
965 
966 
967 
968 
969 
970 
971 
972 
973 
974 
975 
976 
977 
978 
979 
980 
981 
982 
983 
984 
985 
986 
987 
988 
989 
990 
991 
992 
993 
994 
995 
996 
997 
998 
999 
1000 
1001 
1002 
1003 
1004 
1005 
1006 
1007 
1008 
1009 
1010 
1011 
1012 
1013 
1014 
1015 
1016 
1017 
1018 
1019 
1020 
1021 
1022 
1023 
1024 
1025 
1026 
1027 
1028 
1029 
1030 
1031 
1032 
1033 
1034 
1035 
1036 
1037 
1038 
1039 
1040 
1041 
1042 
1043 
1044 
1045 
1046 
1047 
1048 
1049 
1050 
1051 
1052 
1053 
1054 
1055 
1056 
1057 
1058 
1059 
1060 
1061 
1062 
1063 
1064 
1065 
1066 
1067 
1068 
1069 
1070 
1071 
1072 
1073 
1074 
1075 
1076 
1077 
1078 
1079 
1080 
1081 
1082 
1083 
1084 
1085 
1086 
1087 
1088 
1089 
1090 
1091 
1092 
1093 
1094 
1095 
1096 
1097 
1098 
1099 
1100 
1101 
1102 
1103 
1104 
1105 
1106 
1107 
1108 
1109 
1110 
1111 
1112 
1113 
1114 
1115 
1116 
1117 
1118 
1119 
1120 
1121 
1122 
1123 
1124 
1125 
1126 
1127 
1128 
1129 
1130 
1131 
1132 
1133 
1134 
1135 
1136 
1137 
1138 
1139 
1140 
1141 
1142 
1143 
1144 
1145 
1146 
1147 
1148 
1149 
1150 
1151 
1152 
1153 
1154 
1155 
1156 
1157 
1158 
1159 
1160 
1161 
1162 
1163 
1164 
1165 
1166 
1167 
1168 
1169 
1170 
1171 
1172 
1173 
1174 
1175 
1176 
1177 
1178 
1179 
1180 
1181 
1182 
1183 
1184 
1185 
1186 
1187 
1188 
1189 
1190 
1191 
1192 
1193 
1194 
1195 
1196 
1197 
1198 
1199 
1200 
1201 
1202 
1203 
1204 
1205 
1206 
1207 
1208 
1209 
1210 
1211 
1212 
1213 
1214 
1215 
1216 
1217 
1218 
1219 
1220 
1221 
1222 
1223 
1224 
1225 
1226 
1227 
1228 
1229 
1230 
1231 
1232 
1233 
1234 
1235 
1236 
1237 
1238 
1239 
1240 
1241 
1242 
1243 
1244 
1245 
1246 
1247 
1248 
1249 
1250 
1251 
1252 
1253 
1254 
1255 
1256 
1257 
1258 
1259 
1260 
1261 
1262 
1263 
1264 
1265 
1266 
1267 
1268 
1269 
1270 
1271 
1272 
1273 
1274 
1275 
1276 
1277 
1278 
1279 
1280 
1281 
1282 
1283 
1284 
1285 
1286 
1287 
1288 
1289 
1290 
1291 
1292 
1293 
1294 
1295 
1296 
1297 
1298 
1299 
1300 
1301 
1302 
1303 
1304 
1305 
1306 
1307 
1308 
1309 
1310 
1311 
1312 
1313 
1314 
1315 
1316 
1317 
1318 
1319 
1320 
1321 
1322 
1323 
1324 
1325 
1326 
1327 
1328 
1329 
1330 
1331 
1332 
1333 
1334 
1335 
1336 
1337 
1338 
1339 
1340 
1341 
1342 
1343 
1344 
1345 
1346 
1347 
1348 
1349 
1350 
1351 
1352 
1353 
1354 
1355 
1356 
1357 
1358 
1359 
