# vtk DataFile Version 3.0
MOAB 5.0.1
ASCII
DATASET UNSTRUCTURED_GRID
POINTS 45 double
0 0.25 1
0.09435477687 0.3293194257 0.5460388006
0.09435477687 0.217635865 0.5298544278
0.08776253891 0.3361772771 0.5960506236
0 0.3350506824 0.5485531183
0 0.2233671216 0.5323687455
0.125 0.2500001492 1
0 0.3450380118 0.6614148387
0 0.2300253412 0.6492765592
0 0.2366835608 0.7661843728
0 0.3550253412 0.7742765592
0 0.2433417804 0.8830921864
0.1283476894 0.2843277197 0.6367131014
0.1283476894 0.1726441589 0.6205287286
0.04717738844 0.2763432737 0.5392037731
0.08776253891 0.1128101555 0.5636818781
0.04058515048 0.1715175642 0.5730312233
0.07454216077 0.1110824032 0.4771054357
0.02736477234 0.2814733727 0.5026391537
0.07454216077 0.3344495248 0.5094741813
0.04717738844 0.1646597129 0.5230194003
0.02736477234 0.1697898119 0.486454781
0.1217195492 0.2757421161 0.500124836
0.07454216077 0.222765964 0.4932898085
0.1217554514 0.1795020102 0.6705405516
0.08117030096 0.3696680068 0.8636937011
0.1217554514 0.3045020102 0.7955405516
0.08117030096 0.3563515676 0.7548780738
0.08117030096 0.3430351284 0.6460624466
0.08117030096 0.2446680068 0.8636937011
0.1544619855 0.3079673148 0.8223790133
0.1544619855 0.1829673148 0.8223790133
0.04058515048 0.3098340034 0.9318468505
0.07329168458 0.313299308 0.9586853123
0.07329168458 0.188299308 0.9586853123
0.04058515048 0.1848340034 0.9318468505
0.1138768351 0.2481333114 0.8905321628
0.04058515048 0.283201125 0.5892155961
0.08117030096 0.2313515676 0.6298780738
0.08776253891 0.2244937163 0.5798662508
0.08117030096 0.2446680068 0.7386937011
0.04058515048 0.1781757838 0.6899390369
0.04058515048 0.3031757838 0.8149390369
0.04058515048 0.2898593446 0.7061234097
0.04058515048 0.1781757838 0.8149390369
CELLS 62 312
4 4 5 18 14
4 22 1 23 2
4 17 2 22 23
4 23 1 14 2
4 14 5 21 20
4 14 17 23 2
4 22 1 19 23
4 14 5 18 21
4 14 1 23 19
4 23 18 14 19
4 14 18 23 21
4 14 5 20 16
4 34 0 33 36
4 36 0 33 32
4 36 33 30 32
4 34 0 36 35
4 31 35 34 36
4 36 0 32 35
4 36 35 29 31
4 29 35 36 32
4 30 29 36 32
4 37 5 4 14
4 3 28 38 12
4 39 13 3 38
4 2 1 14 39
4 2 14 15 39
4 3 28 37 38
4 3 1 39 14
4 37 5 14 16
4 39 16 37 14
4 39 37 3 14
4 37 16 39 38
4 3 37 39 38
4 33 0 34 6
4 40 25 29 26
4 38 24 27 40
4 41 9 42 43
4 27 43 41 42
4 27 41 40 42
4 41 43 27 38
4 40 41 27 38
4 29 25 40 42
4 44 9 42 41
4 40 41 44 42
4 40 44 29 42
4 38 28 37 43
4 37 5 16 8
4 41 9 43 8
4 37 8 41 43
4 37 41 38 43
4 41 8 37 16
4 38 41 37 16
4 42 9 10 43
4 35 0 32 11
4 44 9 11 42
4 32 42 44 11
4 32 44 35 11
4 44 42 32 29
4 35 44 32 29
4 43 37 8 7
5 9 8 7 10 43
5 8 5 4 7 37
CELL_TYPES 62
10
10
10
10
10
10
10
10
10
10
10
10
10
10
10
10
10
10
10
10
10
10
10
10
10
10
10
10
10
10
10
10
10
10
10
10
10
10
10
10
10
10
10
10
10
10
10
10
10
10
10
10
10
10
10
10
10
10
10
10
14
14
POINT_DATA 45
SCALARS GLOBAL_ID int 1
LOOKUP_TABLE default
127 
395 
396 
397 
486 
487 
550 
602 
603 
604 
605 
609 
1101 
1129 
1535 
1537 
1540 
3287 
3307 
3309 
3311 
3312 
3316 
3317 
4524 
4560 
4563 
4565 
4567 
4595 
4596 
4599 
4601 
4603 
4605 
4606 
4616 
4676 
4677 
4678 
4689 
4690 
4691 
4692 
4693 
SCALARS LOCAL_ID_L1 int 1
LOOKUP_TABLE default
0 
1 
2 
3 
4 
5 
6 
7 
8 
9 
10 
11 
12 
13 
14 
15 
16 
17 
18 
19 
20 
21 
22 
23 
24 
25 
26 
27 
28 
29 
30 
31 
32 
33 
34 
35 
36 
37 
38 
39 
40 
41 
42 
43 
44 
CELL_DATA 62
SCALARS GLOBAL_ID int 1
LOOKUP_TABLE default
12506 
12539 
12543 
12546 
12547 
12550 
12553 
12561 
12562 
12566 
12568 
12575 
23455 
23463 
23470 
23473 
23477 
23481 
23483 
23485 
23486 
24241 
24265 
24268 
24269 
24272 
24273 
24274 
24276 
24277 
24278 
24279 
24280 
24338 
24411 
24424 
24428 
24429 
24430 
24431 
24432 
24434 
24436 
24437 
24438 
24450 
24451 
24452 
24453 
24454 
24455 
24456 
24460 
24466 
24468 
24469 
24470 
24471 
24472 
24558 
27877 
27878 
SCALARS Partition int 1
LOOKUP_TABLE default
5 
5 
5 
5 
5 
5 
5 
5 
5 
5 
5 
5 
5 
5 
5 
5 
5 
5 
5 
5 
5 
5 
5 
5 
5 
5 
5 
5 
5 
5 
5 
5 
5 
5 
5 
5 
5 
5 
5 
5 
5 
5 
5 
5 
5 
5 
5 
5 
5 
5 
5 
5 
5 
5 
5 
5 
5 
5 
5 
5 
5 
5 
SCALARS LOCAL_ID_L1 int 1
LOOKUP_TABLE default
0 
1 
2 
3 
4 
5 
6 
7 
8 
9 
10 
11 
12 
13 
14 
15 
16 
17 
18 
19 
20 
21 
22 
23 
24 
25 
26 
27 
28 
29 
30 
31 
32 
33 
34 
35 
36 
37 
38 
39 
40 
41 
42 
43 
44 
45 
46 
47 
48 
49 
50 
51 
52 
53 
54 
55 
56 
57 
58 
59 
60 
61 
