# vtk DataFile Version 3.0
MOAB 5.0.1
ASCII
DATASET UNSTRUCTURED_GRID
POINTS 66 double
0 0 0
2 0 0
0 2 0
2 2 0
0 0 2
2 0 2
0 2 2
2 2 2
1 0 2
2 0 1
1 0 0
0 0 1
0 1 2
1 2 2
2 2 1
1 2 0
0 2 1
0 1 0
2 1 2
2 1 0
1.106535197 0.8705271383 2
0.8398695236 1.529021479 2
1.21325295 1.425498595 2
0 1.106531514 0.8705250178
0 0.8398666015 1.529019797
0 1.213250068 1.425496936
0.8934648034 2 1.129472862
1.160130476 2 0.4709785211
0.7867470499 2 0.5745014052
0.998046875 0.998046875 0
0.8934648034 0 1.129472862
1.160130476 0 0.4709785211
0.7867470499 0 0.5745014052
2 0.9999989772 0.9999989772
0.4192891338 0.4664515431 1.674999607
1.592928759 0.4658445202 1.851884123
0.2984797803 1.6011926 1.761875931
1.226670968 1.783977556 1.81044354
1.655190994 1.286492442 1.70393611
0.4568353853 1.241654433 1.576009109
0.3239290252 0.4874986886 0.4480291626
0.2408083189 1.641329841 0.4851593115
0.1326108637 0.4306605709 1.635076638
0.2055150218 1.314797669 1.766333409
0.269835956 1.692212008 1.305071103
0.3205107707 0.6148320977 1.267185
0.8459701283 1.768600424 0.2138544746
0.3702189492 1.886775229 0.6852190906
1.586193465 1.844122387 0.3303626944
0.442579119 1.691139545 1.571049405
1.478040815 1.762949548 1.686402452
1.424651371 1.620064642 0.7115869802
0.5258639801 0.4393286823 0.1869405518
1.508711499 0.4004314737 0.3374575851
0.5072477554 1.602862071 0.2159270437
1.449113597 1.587554459 0.3319831751
0.7580362527 0.2412188015 0.2139586201
0.3453497158 0.2844509104 0.6763693461
1.592093503 0.1552434534 0.3386590086
0.2965043024 0.317982138 1.537292201
1.522833653 0.4035404353 1.600529606
1.397132618 0.3794583966 0.6125903594
1.68109506 0.3178669457 0.4748915786
1.679580007 1.676221159 0.4681541745
1.719379554 0.6507139462 1.658692434
1.617649428 1.589357797 1.473782644
CELLS 0 0
CELL_TYPES 0
POINT_DATA 66
SCALARS GLOBAL_ID int 1
LOOKUP_TABLE default
0 
1 
2 
3 
4 
5 
6 
7 
8 
9 
10 
11 
12 
13 
14 
15 
16 
17 
18 
19 
20 
21 
22 
23 
24 
25 
26 
27 
28 
29 
30 
31 
32 
33 
34 
35 
36 
37 
38 
39 
40 
41 
42 
43 
44 
45 
46 
47 
48 
49 
50 
51 
52 
53 
54 
55 
56 
57 
58 
59 
60 
61 
62 
63 
64 
65 
SCALARS ID-NODES int 1
LOOKUP_TABLE default
0 
1 
2 
3 
4 
5 
6 
7 
8 
9 
10 
11 
12 
13 
14 
15 
16 
17 
18 
19 
20 
21 
22 
23 
24 
25 
26 
27 
28 
29 
30 
31 
32 
33 
34 
35 
36 
37 
38 
39 
40 
41 
42 
43 
44 
45 
46 
47 
48 
49 
50 
51 
52 
53 
54 
55 
56 
57 
58 
59 
60 
61 
62 
63 
64 
65 
SCALARS FLAGS int 1
LOOKUP_TABLE default
101 
101 
101 
101 
202 
202 
202 
202 
0 
0 
0 
0 
0 
0 
0 
0 
0 
0 
0 
0 
0 
0 
0 
0 
0 
0 
0 
0 
0 
0 
0 
0 
0 
0 
0 
0 
0 
0 
0 
0 
0 
0 
0 
0 
0 
0 
0 
0 
0 
0 
0 
0 
0 
0 
0 
0 
0 
0 
0 
0 
0 
0 
0 
0 
0 
0 
SCALARS BUNDA int 1
LOOKUP_TABLE default
0 
1 
2 
3 
4 
5 
6 
7 
8 
9 
10 
11 
12 
13 
14 
15 
16 
17 
18 
19 
20 
21 
22 
23 
24 
25 
26 
27 
28 
29 
30 
31 
32 
33 
0 
0 
0 
0 
0 
0 
0 
0 
0 
0 
0 
0 
0 
0 
0 
0 
0 
0 
0 
0 
0 
0 
0 
0 
0 
0 
0 
0 
0 
0 
0 
0 
