# vtk DataFile Version 3.0
MOAB 5.0.1
ASCII
DATASET UNSTRUCTURED_GRID
POINTS 51 double
0 0 0
2 0 0
0 2 0
2 2 0
0 0 2
2 0 2
0 2 2
2 2 2
1 0 2
2 0 1
1 0 0
0 0 1
0 1 2
1 2 2
2 2 1
1 2 0
0 2 1
0 1 0
2 1 2
2 1 0
1 1 2
1.5 0.5 2
0.5 1.5 2
0.5 0.5 2
1.5 1.5 2
0 1 1
0 0.5 1.5
0 1.5 0.5
0 0.5 0.5
0 1.5 1.5
1 2 1
1.5 2 0.5
1.5 2 1.5
0.5 2 1.5
0.5 2 0.5
1 1 0
0.5 1.5 0
1.5 1.5 0
1.5 0.5 0
0.5 0.5 0
1 0 1
1.5 0 0.5
1.5 0 1.5
0.5 0 0.5
0.5 0 1.5
2 1 1
2 1.5 1.5
2 0.5 1.5
2 0.5 0.5
2 1.5 0.5
1.131443299 0.8788659794 1.121134021
CELLS 0 0
CELL_TYPES 0
POINT_DATA 51
SCALARS GLOBAL_ID int 1
LOOKUP_TABLE default
0 
1 
2 
3 
4 
5 
6 
7 
8 
9 
10 
11 
12 
13 
14 
15 
16 
17 
18 
19 
20 
21 
22 
23 
24 
25 
26 
27 
28 
29 
30 
31 
32 
33 
34 
35 
36 
37 
38 
39 
40 
41 
42 
43 
44 
45 
46 
47 
48 
49 
50 
SCALARS ID-NODES int 1
LOOKUP_TABLE default
0 
1 
2 
3 
4 
5 
6 
7 
8 
9 
10 
11 
12 
13 
14 
15 
16 
17 
18 
19 
20 
21 
22 
23 
24 
25 
26 
27 
28 
29 
30 
31 
32 
33 
34 
35 
36 
37 
38 
39 
40 
41 
42 
43 
44 
45 
46 
47 
48 
49 
50 
SCALARS FLAGS int 1
LOOKUP_TABLE default
101 
101 
101 
101 
202 
202 
202 
202 
0 
0 
0 
0 
0 
0 
0 
0 
0 
0 
0 
0 
0 
0 
0 
0 
0 
0 
0 
0 
0 
0 
0 
0 
0 
0 
0 
0 
0 
0 
0 
0 
0 
0 
0 
0 
0 
0 
0 
0 
0 
0 
0 
