# vtk DataFile Version 3.0
MOAB 5.0.1
ASCII
DATASET UNSTRUCTURED_GRID
POINTS 66 double
0 0 0
1 0 0
0 1 0
1 1 0
0 0 1
1 0 1
0 1 1
1 1 1
0.5 0 1
1 0 0.5
0.5 0 0
0 0 0.5
0 0.5 1
0.5 1 1
1 1 0.5
0.5 1 0
0 1 0.5
0 0.5 0
1 0.5 1
1 0.5 0
0.5532675983 0.4352635691 1
0.4199347618 0.7645107395 1
0.6066264751 0.7127492974 1
0 0.5532657569 0.4352625089
0 0.4199333007 0.7645098983
0 0.6066250341 0.7127484678
0.4467324017 1 0.5647364309
0.5800652382 1 0.2354892605
0.3933735249 1 0.2872507026
0.4990234375 0.4990234375 0
0.4467324017 0 0.5647364309
0.5800652382 0 0.2354892605
0.3933735249 0 0.2872507026
1 0.4999994886 0.4999994886
0.2125422389 0.231708931 0.8381831642
0.7964643796 0.2329222601 0.9259420613
0.1663901427 0.782272904 0.8834030937
0.6148520994 0.893232269 0.8797057465
0.8191066203 0.6472491733 0.923657195
0.2585234783 0.6183419867 0.8281966839
0.1621159255 0.2436280133 0.2239964331
0.1200093642 0.8198921004 0.2426794853
0.06720199375 0.21485423 0.8177446487
0.1256714979 0.6598264789 0.8876504848
0.1315070762 0.8360290117 0.6559787857
0.1855247367 0.2951337889 0.6397686568
0.4229486726 0.88425039 0.1069395054
0.1852117736 0.9429961449 0.3426489049
0.7930967323 0.9220611936 0.1651813472
0.2303315483 0.8301036661 0.79497903
0.766832234 0.8737271237 0.801703741
0.6942678243 0.8092913534 0.3061126211
0.2629614173 0.2196231549 0.09349685766
0.7543557497 0.2002157369 0.1687287926
0.253659597 0.8014888975 0.1081063596
0.7225963 0.7933718289 0.1590909866
0.3790107043 0.1206238731 0.106905401
0.1747001862 0.140461273 0.3385681828
0.7960467513 0.07762172668 0.1693295043
0.1494153107 0.1583153374 0.7689012514
0.7613183432 0.2017976242 0.800581048
0.6985663092 0.1897291983 0.3062951797
0.8405475301 0.1589334729 0.2374457893
0.8384148094 0.8384744796 0.231677793
0.8581527388 0.3261798268 0.8386725959
0.8845564423 0.7405555351 0.8066120514
CELLS 925 3667
2 4 8
2 8 5
2 5 9
2 9 1
2 1 10
2 10 0
2 0 11
2 11 4
2 11 23
2 23 17
2 17 0
2 10 29
2 29 17
2 31 10
2 0 32
2 32 31
2 30 32
2 11 30
2 52 56
2 56 0
2 0 52
2 52 10
2 56 10
2 40 52
2 0 40
2 40 17
2 52 17
2 52 57
2 57 40
2 57 0
2 57 11
2 11 40
2 56 57
2 56 32
2 57 32
2 23 40
2 29 52
2 31 56
2 30 57
2 19 29
2 1 19
2 31 9
2 33 9
2 19 33
2 10 58
2 58 1
2 1 53
2 10 53
2 58 53
2 1 62
2 62 19
2 62 53
2 19 53
2 58 9
2 9 62
2 58 62
2 29 53
2 31 58
2 33 62
2 2 17
2 23 16
2 16 2
2 27 15
2 15 2
2 2 28
2 28 27
2 26 28
2 16 26
2 29 15
2 2 46
2 46 28
2 28 54
2 2 54
2 46 54
2 15 46
2 15 54
2 41 17
2 2 41
2 41 54
2 17 54
2 16 47
2 47 41
2 41 16
2 47 2
2 41 28
2 28 47
2 23 41
2 27 46
2 26 47
2 29 54
2 14 3
2 3 15
2 27 14
2 19 3
2 14 33
2 48 15
2 3 48
2 48 55
2 15 55
2 3 55
2 3 63
2 63 55
2 63 19
2 55 19
2 14 63
2 63 48
2 48 14
2 27 48
2 29 55
2 33 63
2 12 4
2 8 20
2 20 12
2 12 24
2 24 11
2 8 30
2 8 59
2 59 4
2 4 34
2 8 34
2 59 34
2 12 34
2 4 42
2 12 42
2 34 42
2 59 11
2 11 42
2 59 42
2 20 34
2 24 42
2 30 59
2 5 18
2 18 20
2 9 30
2 33 18
2 35 64
2 64 18
2 18 35
2 35 5
2 64 5
2 35 8
2 8 60
2 60 35
2 60 5
2 9 64
2 64 60
2 60 9
2 20 35
2 30 60
2 33 64
2 12 21
2 21 13
2 13 6
2 6 12
2 6 25
2 25 24
2 6 16
2 23 25
2 13 26
2 25 36
2 36 6
2 6 43
2 25 43
2 36 43
2 36 12
2 43 12
2 36 49
2 49 6
2 36 13
2 49 13
2 16 44
2 44 49
2 49 16
2 44 6
2 49 25
2 25 44
2 21 36
2 24 43
2 23 44
2 26 49
2 21 22
2 22 7
2 7 13
2 22 20
2 18 7
2 14 26
2 7 14
2 7 50
2 50 22
2 22 37
2 7 37
2 50 37
2 50 13
2 13 37
2 18 65
2 65 38
2 38 18
2 65 7
2 38 7
2 65 14
2 14 50
2 50 65
2 65 22
2 22 38
2 21 37
2 20 38
2 26 50
2 33 65
2 34 30
2 20 60
2 20 30
2 33 60
2 30 33
2 9 61
2 30 61
2 33 61
2 31 62
2 62 61
2 31 61
2 32 61
2 29 56
2 29 31
2 31 53
2 23 57
2 23 45
2 45 11
2 45 57
2 30 45
2 59 45
2 42 45
2 45 24
2 25 45
2 12 39
2 39 20
2 20 24
2 39 24
2 24 34
2 43 21
2 21 39
2 43 39
2 22 39
2 26 37
2 21 26
2 49 21
2 50 33
2 33 26
2 26 51
2 14 51
2 33 51
2 63 27
2 63 51
2 27 51
2 28 51
2 46 29
2 27 55
2 29 27
2 47 23
2 44 26
2 44 47
2 29 23
2 54 23
2 29 40
2 20 64
2 33 38
2 64 38
2 33 53
2 55 33
2 33 29
2 20 33
2 20 26
2 26 39
2 26 22
2 22 33
2 45 20
2 34 45
2 39 45
2 33 45
2 26 45
2 49 39
2 36 39
2 29 26
2 26 23
2 23 33
2 23 39
2 39 25
2 29 28
2 28 23
2 39 44
2 57 29
2 29 45
2 29 51
2 51 55
2 29 30
2 61 29
2 61 53
2 32 29
3 52 56 10
3 56 0 10
3 52 10 0
3 52 0 56
3 40 52 17
3 52 0 17
3 40 17 0
3 40 0 52
3 52 57 0
3 57 40 0
3 52 40 57
3 57 11 0
3 11 40 0
3 57 40 11
3 0 56 32
3 56 57 32
3 0 32 57
3 0 57 56
3 57 56 52
3 17 23 40
3 23 11 40
3 10 29 52
3 29 17 52
3 31 10 56
3 32 31 56
3 30 32 57
3 11 30 57
3 1 10 53
3 10 58 53
3 1 53 58
3 1 58 10
3 1 62 53
3 62 19 53
3 1 53 19
3 1 19 62
3 9 1 62
3 1 58 62
3 9 62 58
3 9 58 1
3 58 62 53
3 19 29 53
3 29 10 53
3 10 31 58
3 31 9 58
3 9 33 62
3 33 19 62
3 28 2 54
3 2 46 54
3 28 54 46
3 28 46 2
3 15 46 54
3 15 54 2
3 15 2 46
3 41 17 54
3 17 2 54
3 41 54 2
3 41 2 17
3 16 47 2
3 47 41 2
3 16 2 41
3 16 41 47
3 41 28 47
3 28 2 47
3 41 2 28
3 28 41 54
3 16 23 41
3 23 17 41
3 15 27 46
3 27 28 46
3 28 26 47
3 26 16 47
3 17 29 54
3 29 15 54
3 48 15 55
3 15 3 55
3 48 55 3
3 48 3 15
3 3 63 19
3 63 55 19
3 3 19 55
3 3 55 63
3 14 63 3
3 63 48 3
3 14 3 48
3 14 48 63
3 63 48 55
3 14 27 48
3 27 15 48
3 15 29 55
3 29 19 55
3 33 14 63
3 19 33 63
3 4 8 34
3 8 59 34
3 4 34 59
3 4 59 8
3 4 12 42
3 12 34 42
3 4 42 34
3 4 34 12
3 11 4 42
3 4 59 42
3 11 42 59
3 11 59 4
3 59 42 34
3 12 20 34
3 20 8 34
3 11 24 42
3 24 12 42
3 30 11 59
3 8 30 59
3 35 64 5
3 64 18 5
3 35 5 18
3 35 18 64
3 35 8 5
3 8 60 5
3 35 5 60
3 35 60 8
3 9 64 5
3 64 60 5
3 9 5 60
3 9 60 64
3 64 60 35
3 8 20 35
3 20 18 35
3 9 30 60
3 30 8 60
3 18 33 64
3 33 9 64
3 6 25 43
3 25 36 43
3 6 43 36
3 6 36 25
3 36 6 12
3 6 43 12
3 36 12 43
3 36 49 13
3 49 6 13
3 36 13 6
3 36 6 49
3 16 44 6
3 44 49 6
3 16 6 49
3 16 49 44
3 49 25 44
3 25 6 44
3 49 6 25
3 49 36 25
3 13 21 36
3 21 12 36
3 24 25 43
3 12 24 43
3 25 23 44
3 23 16 44
3 16 26 49
3 26 13 49
3 22 7 37
3 7 50 37
3 22 37 50
3 22 50 7
3 50 13 7
3 13 37 7
3 50 37 13
3 18 65 7
3 65 38 7
3 18 7 38
3 18 38 65
3 65 14 7
3 14 50 7
3 65 7 50
3 65 50 14
3 65 22 50
3 7 22 65
3 7 22 38
3 22 65 38
3 21 13 37
3 22 21 37
3 18 20 38
3 20 22 38
3 13 26 50
3 26 14 50
3 14 33 65
3 33 18 65
3 59 34 30
3 8 30 34
3 8 20 60
3 20 35 60
3 20 8 30
3 20 30 34
3 20 60 30
3 60 64 33
3 60 33 9
3 9 30 61
3 30 33 61
3 9 61 33
3 9 33 30
3 30 60 33
3 31 62 58
3 9 62 31
3 61 33 62
3 61 62 9
3 31 9 61
3 31 61 62
3 32 30 61
3 31 32 61
3 56 10 29
3 56 29 52
3 29 31 53
3 31 10 53
3 29 10 31
3 31 29 56
3 31 58 53
3 23 57 40
3 11 57 23
3 23 45 57
3 11 57 45
3 11 45 23
3 30 11 45
3 11 59 45
3 30 45 59
3 30 57 45
3 42 45 24
3 11 24 45
3 11 45 42
3 45 42 59
3 25 24 45
3 23 25 45
3 20 12 24
3 12 39 24
3 20 24 39
3 20 39 12
3 12 24 34
3 20 34 24
3 21 12 39
3 12 43 39
3 21 39 43
3 21 43 12
3 21 43 36
3 43 39 24
3 34 42 24
3 22 20 39
3 21 22 39
3 13 26 37
3 26 50 37
3 26 37 21
3 26 21 13
3 49 26 21
3 49 21 13
3 36 49 21
3 50 33 65
3 14 33 50
3 26 14 51
3 14 33 51
3 26 51 33
3 26 33 14
3 26 33 50
3 27 48 63
3 27 63 14
3 14 63 51
3 33 51 63
3 14 27 51
3 27 63 51
3 26 28 51
3 28 27 51
3 46 29 15
3 46 54 29
3 27 15 55
3 27 55 48
3 29 27 46
3 29 15 27
3 29 55 27
3 23 41 47
3 23 47 16
3 26 49 44
3 26 44 16
3 16 44 47
3 23 47 44
3 26 44 47
3 17 29 23
3 29 54 23
3 17 23 54
3 41 23 54
3 40 52 29
3 40 29 17
3 29 23 40
3 20 64 35
3 18 64 20
3 33 38 65
3 18 38 33
3 33 64 38
3 18 38 64
3 20 38 64
3 53 62 33
3 53 33 19
3 63 55 33
3 55 19 33
3 29 53 33
3 29 33 19
3 29 33 55
3 20 64 33
3 20 33 60
3 20 60 64
3 20 26 22
3 26 39 22
3 20 39 26
3 20 26 33
3 26 22 33
3 20 33 22
3 30 20 33
3 45 20 30
3 45 30 34
3 45 34 20
3 20 45 24
3 45 34 24
3 39 45 24
3 20 45 39
3 22 38 33
3 20 33 38
3 33 45 20
3 30 45 33
3 26 45 20
3 33 45 26
3 26 45 39
3 49 26 39
3 26 21 39
3 49 39 21
3 26 21 22
3 26 37 22
3 36 39 21
3 49 39 36
3 43 36 39
3 22 33 50
3 22 50 26
3 33 65 22
3 23 29 33
3 29 26 33
3 23 33 26
3 23 26 29
3 23 39 45
3 25 45 39
3 25 39 23
3 29 28 26
3 23 26 28
3 23 28 29
3 29 54 28
3 54 23 28
3 41 23 28
3 47 23 28
3 47 23 26
3 44 23 26
3 33 45 23
3 45 26 23
3 26 23 39
3 39 44 25
3 23 44 39
3 44 39 26
3 57 29 23
3 57 40 29
3 29 45 23
3 33 45 29
3 57 29 45
3 39 25 24
3 25 43 39
3 34 42 45
3 49 25 39
3 49 39 44
3 39 36 25
3 29 51 33
3 26 51 29
3 29 28 51
3 51 29 55
3 51 55 27
3 51 27 29
3 29 28 27
3 63 27 55
3 63 51 55
3 28 46 29
3 29 30 33
3 29 33 61
3 29 61 30
3 51 33 55
3 61 29 53
3 61 53 33
3 32 29 61
3 32 30 29
3 31 53 61
3 31 61 29
3 31 32 29
3 29 57 52
3 32 29 56
3 29 32 57
3 29 57 30
3 45 29 30
3 29 56 57
3 59 34 45
3 62 53 31
3 62 53 61
4 12 4 8 20
4 5 18 20 8
4 12 21 13 6
4 21 22 7 13
4 7 22 20 18
4 22 21 12 20
4 0 11 23 17
4 2 17 23 16
4 11 4 12 24
4 24 12 6 25
4 6 16 23 25
4 25 23 11 24
4 27 15 2 28
4 26 28 2 16
4 14 3 15 27
4 26 16 6 13
4 14 26 13 7
4 28 26 14 27
4 0 10 29 17
4 19 29 10 1
4 17 29 15 2
4 15 29 19 3
4 31 10 0 32
4 30 32 0 11
4 9 1 10 31
4 30 11 4 8
4 9 30 8 5
4 32 30 9 31
4 33 9 1 19
4 3 14 33 19
4 33 18 5 9
4 18 33 14 7
4 62 61 33 53
4 63 51 55 33
4 26 29 51 33
4 29 30 61 33
4 23 29 26 33
4 25 23 39 45
4 20 64 60 33
4 51 29 55 33
4 61 29 33 53
4 29 28 26 51
4 32 29 30 61
4 20 64 35 60
4 20 26 39 22
4 22 26 50 33
4 20 26 22 33
4 59 45 34 30
4 23 29 28 26
4 53 19 33 62
4 63 55 19 33
4 51 29 27 55
4 31 29 61 53
4 30 20 60 33
4 14 50 33 65
4 60 9 33 64
4 45 20 34 30
4 29 54 23 28
4 20 45 34 24
4 54 41 23 28
4 26 14 33 51
4 9 30 33 61
4 20 39 45 24
4 39 25 45 24
4 20 22 38 33
4 29 28 51 27
4 31 29 32 61
4 62 31 53 58
4 41 47 23 28
4 63 27 48 55
4 29 19 33 53
4 19 29 33 55
4 14 26 33 50
4 30 9 33 60
4 62 31 61 53
4 63 27 55 51
4 64 20 38 33
4 49 26 21 39
4 9 31 62 58
4 27 14 63 48
4 47 23 28 26
4 33 14 63 51
4 61 9 62 33
4 26 21 39 22
4 11 23 57 40
4 28 2 46 54
4 22 7 50 37
4 17 29 54 23
4 47 44 23 26
4 18 20 64 35
4 18 33 38 65
4 18 33 64 38
4 41 17 54 23
4 11 23 45 57
4 6 25 36 43
4 8 59 34 30
4 8 20 35 60
4 18 20 38 64
4 46 29 54 15
4 56 52 29 10
4 20 12 39 24
4 30 11 59 45
4 52 56 0 10
4 15 46 2 54
4 20 12 24 34
4 50 13 37 7
4 20 8 34 30
4 20 8 30 60
4 30 11 45 57
4 26 22 50 37
4 21 12 43 39
4 29 31 10 53
4 36 6 43 12
4 12 21 43 36
4 36 49 6 13
4 1 10 58 53
4 48 15 3 55
4 31 9 62 61
4 14 27 63 51
4 31 56 29 10
4 25 39 43 24
4 41 17 2 54
4 35 64 18 5
4 1 62 19 53
4 3 63 55 19
4 23 16 47 41
4 26 16 44 49
4 35 8 60 5
4 4 8 59 34
4 40 52 0 17
4 26 21 22 37
4 4 12 34 42
4 18 65 38 7
4 16 47 41 2
4 16 44 49 6
4 52 57 40 0
4 9 64 60 5
4 65 14 50 7
4 9 1 58 62
4 14 63 48 3
4 11 4 59 42
4 13 26 50 37
4 23 16 44 47
4 26 16 47 44
4 57 11 40 0
4 64 35 60 5
4 43 39 12 24
4 26 13 21 37
4 49 26 13 21
4 1 58 62 53
4 63 48 3 55
4 59 4 34 42
4 10 31 58 53
4 27 15 48 55
4 34 12 24 42
4 36 49 13 21
4 30 33 45 20
4 33 45 26 23
4 33 26 45 20
4 26 45 39 23
4 26 39 45 20
4 41 28 2 47
4 2 28 41 54
4 49 44 39 25
4 49 39 44 26
4 23 39 44 25
4 23 44 39 26
4 11 42 45 24
4 11 45 42 59
4 34 45 42 24
4 34 42 45 59
4 40 17 29 52
4 29 17 40 23
4 40 29 57 52
4 57 29 40 23
4 49 25 6 44
4 49 6 25 36
4 49 39 36 25
4 49 36 39 21
4 43 36 39 25
4 43 39 36 21
4 32 56 29 31
4 28 46 29 54
4 28 29 46 27
4 29 27 15 46
4 29 15 27 55
4 7 65 22 50
4 7 22 65 38
4 33 22 65 50
4 33 65 22 38
4 29 30 57 32
4 33 45 29 30
4 33 29 45 23
4 57 29 45 30
4 57 45 29 23
4 0 56 57 32
4 0 57 56 52
4 29 57 56 32
4 29 56 57 52
5 12 20 8 4 34
5 5 8 20 18 35
5 12 6 13 21 36
5 21 13 7 22 37
5 7 18 20 22 38
5 22 20 12 21 39
5 0 17 23 11 40
5 2 16 23 17 41
5 11 24 12 4 42
5 24 25 6 12 43
5 6 25 23 16 44
5 25 24 11 23 45
5 2 15 27 28 46
5 2 28 26 16 47
5 15 3 14 27 48
5 6 16 26 13 49
5 13 26 14 7 50
5 14 26 28 27 51
5 0 10 29 17 52
5 19 29 10 1 53
5 17 29 15 2 54
5 15 29 19 3 55
5 31 10 0 32 56
5 30 32 0 11 57
5 9 1 10 31 58
5 30 11 4 8 59
5 9 30 8 5 60
5 32 30 9 31 61
5 1 9 33 19 62
5 33 14 3 19 63
5 5 18 33 9 64
5 14 33 18 7 65
CELL_TYPES 925
3
3
3
3
3
3
3
3
3
3
3
3
3
3
3
3
3
3
3
3
3
3
3
3
3
3
3
3
3
3
3
3
3
3
3
3
3
3
3
3
3
3
3
3
3
3
3
3
3
3
3
3
3
3
3
3
3
3
3
3
3
3
3
3
3
3
3
3
3
3
3
3
3
3
3
3
3
3
3
3
3
3
3
3
3
3
3
3
3
3
3
3
3
3
3
3
3
3
3
3
3
3
3
3
3
3
3
3
3
3
3
3
3
3
3
3
3
3
3
3
3
3
3
3
3
3
3
3
3
3
3
3
3
3
3
3
3
3
3
3
3
3
3
3
3
3
3
3
3
3
3
3
3
3
3
3
3
3
3
3
3
3
3
3
3
3
3
3
3
3
3
3
3
3
3
3
3
3
3
3
3
3
3
3
3
3
3
3
3
3
3
3
3
3
3
3
3
3
3
3
3
3
3
3
3
3
3
3
3
3
3
3
3
3
3
3
3
3
3
3
3
3
3
3
3
3
3
3
3
3
3
3
3
3
3
3
3
3
3
3
3
3
3
3
3
3
3
3
3
3
3
3
3
3
3
3
3
3
3
3
3
3
3
3
3
3
3
3
3
3
3
3
3
3
3
3
3
3
3
3
3
3
3
3
3
3
3
3
3
3
3
3
3
3
3
3
5
5
5
5
5
5
5
5
5
5
5
5
5
5
5
5
5
5
5
5
5
5
5
5
5
5
5
5
5
5
5
5
5
5
5
5
5
5
5
5
5
5
5
5
5
5
5
5
5
5
5
5
5
5
5
5
5
5
5
5
5
5
5
5
5
5
5
5
5
5
5
5
5
5
5
5
5
5
5
5
5
5
5
5
5
5
5
5
5
5
5
5
5
5
5
5
5
5
5
5
5
5
5
5
5
5
5
5
5
5
5
5
5
5
5
5
5
5
5
5
5
5
5
5
5
5
5
5
5
5
5
5
5
5
5
5
5
5
5
5
5
5
5
5
5
5
5
5
5
5
5
5
5
5
5
5
5
5
5
5
5
5
5
5
5
5
5
5
5
5
5
5
5
5
5
5
5
5
5
5
5
5
5
5
5
5
5
5
5
5
5
5
5
5
5
5
5
5
5
5
5
5
5
5
5
5
5
5
5
5
5
5
5
5
5
5
5
5
5
5
5
5
5
5
5
5
5
5
5
5
5
5
5
5
5
5
5
5
5
5
5
5
5
5
5
5
5
5
5
5
5
5
5
5
5
5
5
5
5
5
5
5
5
5
5
5
5
5
5
5
5
5
5
5
5
5
5
5
5
5
5
5
5
5
5
5
5
5
5
5
5
5
5
5
5
5
5
5
5
5
5
5
5
5
5
5
5
5
5
5
5
5
5
5
5
5
5
5
5
5
5
5
5
5
5
5
5
5
5
5
5
5
5
5
5
5
5
5
5
5
5
5
5
5
5
5
5
5
5
5
5
5
5
5
5
5
5
5
5
5
5
5
5
5
5
5
5
5
5
5
5
5
5
5
5
5
5
5
5
5
5
5
5
5
5
5
5
5
5
5
5
5
5
5
5
5
5
5
9
9
9
9
9
9
9
9
9
9
9
9
9
9
9
9
9
9
9
9
9
9
9
9
9
9
9
9
9
9
9
9
10
10
10
10
10
10
10
10
10
10
10
10
10
10
10
10
10
10
10
10
10
10
10
10
10
10
10
10
10
10
10
10
10
10
10
10
10
10
10
10
10
10
10
10
10
10
10
10
10
10
10
10
10
10
10
10
10
10
10
10
10
10
10
10
10
10
10
10
10
10
10
10
10
10
10
10
10
10
10
10
10
10
10
10
10
10
10
10
10
10
10
10
10
10
10
10
10
10
10
10
10
10
10
10
10
10
10
10
10
10
10
10
10
10
10
10
10
10
10
10
10
10
10
10
10
10
10
10
10
10
10
10
10
10
10
10
10
10
10
10
10
10
10
10
10
10
10
10
10
10
10
10
10
10
10
10
10
10
10
10
10
10
10
10
10
10
10
14
14
14
14
14
14
14
14
14
14
14
14
14
14
14
14
14
14
14
14
14
14
14
14
14
14
14
14
14
14
14
14
POINT_DATA 66
SCALARS GLOBAL_ID int 1
LOOKUP_TABLE default
0 
1 
2 
3 
4 
5 
6 
7 
8 
9 
10 
11 
12 
13 
14 
15 
16 
17 
18 
19 
20 
21 
22 
23 
24 
25 
26 
27 
28 
29 
30 
31 
32 
33 
34 
35 
36 
37 
38 
39 
40 
41 
42 
43 
44 
45 
46 
47 
48 
49 
50 
51 
52 
53 
54 
55 
56 
57 
58 
59 
60 
61 
62 
63 
64 
65 
SCALARS SKINPOINT int 1
LOOKUP_TABLE default
200 
200 
200 
200 
200 
200 
200 
200 
200 
200 
200 
200 
200 
200 
200 
200 
200 
200 
200 
200 
200 
200 
200 
200 
200 
200 
200 
200 
200 
200 
200 
200 
200 
200 
0 
0 
0 
0 
0 
0 
0 
0 
0 
0 
0 
0 
0 
0 
0 
0 
0 
0 
0 
0 
0 
0 
0 
0 
0 
0 
0 
0 
0 
0 
0 
0 
SCALARS ID-NODES int 1
LOOKUP_TABLE default
0 
1 
2 
3 
4 
5 
6 
7 
8 
9 
10 
11 
12 
13 
14 
15 
16 
17 
18 
19 
20 
21 
22 
23 
24 
25 
26 
27 
28 
29 
30 
31 
32 
33 
34 
35 
36 
37 
38 
39 
40 
41 
42 
43 
44 
45 
46 
47 
48 
49 
50 
51 
52 
53 
54 
55 
56 
57 
58 
59 
60 
61 
62 
63 
64 
65 
SCALARS FLAGS int 1
LOOKUP_TABLE default
101 
101 
101 
101 
202 
202 
202 
202 
0 
0 
0 
0 
0 
0 
0 
0 
0 
0 
0 
0 
0 
0 
0 
0 
0 
0 
0 
0 
0 
0 
0 
0 
0 
0 
0 
0 
0 
0 
0 
0 
0 
0 
0 
0 
0 
0 
0 
0 
0 
0 
0 
0 
0 
0 
0 
0 
0 
0 
0 
0 
0 
0 
0 
0 
0 
0 
CELL_DATA 925
SCALARS GLOBAL_ID int 1
LOOKUP_TABLE default
0 
1 
2 
3 
4 
5 
6 
7 
8 
9 
10 
11 
12 
13 
14 
15 
16 
17 
18 
19 
20 
21 
22 
23 
24 
25 
26 
27 
28 
29 
30 
31 
32 
33 
34 
35 
36 
37 
38 
39 
40 
41 
42 
43 
44 
45 
46 
47 
48 
49 
50 
51 
52 
53 
54 
55 
56 
57 
58 
59 
60 
61 
62 
63 
64 
65 
66 
67 
68 
69 
70 
71 
72 
73 
74 
75 
76 
77 
78 
79 
80 
81 
82 
83 
84 
85 
86 
87 
88 
89 
90 
91 
92 
93 
94 
95 
96 
97 
98 
99 
100 
101 
102 
103 
104 
105 
106 
107 
108 
109 
110 
111 
112 
113 
114 
115 
116 
117 
118 
119 
120 
121 
122 
123 
124 
125 
126 
127 
128 
129 
130 
131 
132 
133 
134 
135 
136 
137 
138 
139 
140 
141 
142 
143 
144 
145 
146 
147 
148 
149 
150 
151 
152 
153 
154 
155 
156 
157 
158 
159 
160 
161 
162 
163 
164 
165 
166 
167 
168 
169 
170 
171 
172 
173 
174 
175 
176 
177 
178 
179 
180 
181 
182 
183 
184 
185 
186 
187 
188 
189 
190 
191 
192 
193 
194 
195 
196 
197 
198 
199 
200 
201 
202 
203 
204 
205 
206 
207 
208 
209 
210 
211 
212 
213 
214 
215 
216 
217 
218 
219 
220 
221 
222 
223 
224 
225 
226 
227 
228 
229 
230 
231 
232 
233 
234 
235 
236 
237 
238 
239 
240 
241 
242 
243 
244 
245 
246 
247 
248 
249 
250 
251 
252 
253 
254 
255 
256 
257 
258 
259 
260 
261 
262 
263 
264 
265 
266 
267 
268 
269 
270 
271 
272 
273 
274 
275 
276 
277 
278 
279 
280 
281 
282 
283 
284 
285 
286 
287 
288 
289 
290 
291 
292 
293 
294 
295 
0 
1 
2 
3 
4 
5 
6 
7 
8 
9 
10 
11 
12 
13 
14 
15 
16 
17 
18 
19 
20 
21 
22 
23 
24 
25 
26 
27 
28 
29 
30 
31 
32 
33 
34 
35 
36 
37 
38 
39 
40 
41 
42 
43 
44 
45 
46 
47 
48 
49 
50 
51 
52 
53 
54 
55 
56 
57 
58 
59 
60 
61 
62 
63 
64 
65 
66 
67 
68 
69 
70 
71 
72 
73 
74 
75 
76 
77 
78 
79 
80 
81 
82 
83 
84 
85 
86 
87 
88 
89 
90 
91 
92 
93 
94 
95 
96 
97 
98 
99 
100 
101 
102 
103 
104 
105 
106 
107 
108 
109 
110 
111 
112 
113 
114 
115 
116 
117 
118 
119 
120 
121 
122 
123 
124 
125 
126 
127 
128 
129 
130 
131 
132 
133 
134 
135 
136 
137 
138 
139 
140 
141 
142 
143 
144 
145 
146 
147 
148 
149 
150 
151 
152 
153 
154 
155 
156 
157 
158 
159 
160 
161 
162 
163 
164 
165 
166 
167 
168 
169 
170 
171 
172 
173 
174 
175 
176 
177 
178 
179 
180 
181 
182 
183 
184 
185 
186 
187 
188 
189 
190 
191 
192 
193 
194 
195 
196 
197 
198 
199 
200 
201 
202 
203 
204 
205 
206 
207 
208 
209 
210 
211 
212 
213 
214 
215 
216 
217 
218 
219 
220 
221 
222 
223 
224 
225 
226 
227 
228 
229 
230 
231 
232 
233 
234 
235 
236 
237 
238 
239 
240 
241 
242 
243 
244 
245 
246 
247 
248 
249 
250 
251 
252 
253 
254 
255 
256 
257 
258 
259 
260 
261 
262 
263 
264 
265 
266 
267 
268 
269 
270 
271 
272 
273 
274 
275 
276 
277 
278 
279 
280 
281 
282 
283 
284 
285 
286 
287 
288 
289 
290 
291 
292 
293 
294 
295 
296 
297 
298 
299 
300 
301 
302 
303 
304 
305 
306 
307 
308 
309 
310 
311 
312 
313 
314 
315 
316 
317 
318 
319 
320 
321 
322 
323 
324 
325 
326 
327 
328 
329 
330 
331 
332 
333 
334 
335 
336 
337 
338 
339 
340 
341 
342 
343 
344 
345 
346 
347 
348 
349 
350 
351 
352 
353 
354 
355 
356 
357 
358 
359 
360 
361 
362 
363 
364 
365 
366 
367 
368 
369 
370 
371 
372 
373 
374 
375 
376 
377 
378 
379 
380 
381 
382 
383 
384 
385 
386 
387 
388 
389 
390 
391 
392 
393 
394 
395 
396 
397 
398 
399 
400 
401 
402 
403 
404 
405 
406 
407 
408 
409 
410 
411 
412 
413 
414 
415 
416 
417 
418 
419 
420 
421 
422 
423 
424 
425 
426 
427 
428 
429 
0 
1 
2 
3 
4 
5 
6 
7 
8 
9 
10 
11 
12 
13 
14 
15 
16 
17 
18 
19 
20 
21 
22 
23 
24 
25 
26 
27 
28 
29 
30 
31 
32 
33 
34 
35 
36 
37 
38 
39 
40 
41 
42 
43 
44 
45 
46 
47 
48 
49 
50 
51 
52 
53 
54 
55 
56 
57 
58 
59 
60 
61 
62 
63 
64 
65 
66 
67 
68 
69 
70 
71 
72 
73 
74 
75 
76 
77 
78 
79 
80 
81 
82 
83 
84 
85 
86 
87 
88 
89 
90 
91 
92 
93 
94 
95 
96 
97 
98 
99 
100 
101 
102 
103 
104 
105 
106 
107 
108 
109 
110 
111 
112 
113 
114 
115 
116 
117 
118 
119 
120 
121 
122 
123 
124 
125 
126 
127 
128 
129 
130 
131 
132 
133 
134 
135 
136 
137 
138 
139 
140 
141 
142 
143 
144 
145 
146 
147 
148 
149 
150 
151 
152 
153 
154 
155 
156 
157 
158 
159 
160 
161 
162 
163 
164 
165 
166 
167 
168 
169 
170 
171 
172 
173 
174 
175 
176 
177 
178 
179 
180 
181 
182 
183 
184 
185 
186 
187 
188 
189 
190 
191 
192 
193 
194 
195 
196 
197 
198 
SCALARS SKINEDGES int 1
LOOKUP_TABLE default
300 
300 
300 
300 
300 
300 
300 
300 
300 
300 
300 
300 
300 
300 
300 
300 
300 
300 
0 
0 
0 
0 
0 
0 
0 
0 
0 
0 
0 
0 
0 
0 
0 
0 
0 
0 
0 
0 
0 
300 
300 
300 
300 
300 
0 
0 
0 
0 
0 
0 
0 
0 
0 
0 
0 
0 
0 
0 
0 
300 
300 
300 
300 
300 
300 
300 
300 
300 
300 
0 
0 
0 
0 
0 
0 
0 
0 
0 
0 
0 
0 
0 
0 
0 
0 
0 
0 
0 
0 
0 
300 
300 
300 
300 
300 
0 
0 
0 
0 
0 
0 
0 
0 
0 
0 
0 
0 
0 
0 
0 
300 
300 
300 
300 
300 
300 
0 
0 
0 
0 
0 
0 
0 
0 
0 
0 
0 
0 
0 
0 
0 
300 
300 
300 
300 
0 
0 
0 
0 
0 
0 
0 
0 
0 
0 
0 
0 
0 
0 
0 
300 
300 
300 
300 
300 
300 
300 
300 
300 
0 
0 
0 
0 
0 
0 
0 
0 
0 
0 
0 
0 
0 
0 
0 
0 
0 
0 
0 
0 
0 
300 
300 
300 
300 
300 
300 
300 
0 
0 
0 
0 
0 
0 
0 
0 
0 
0 
0 
0 
0 
0 
0 
0 
0 
0 
0 
0 
0 
0 
0 
0 
0 
0 
0 
0 
0 
0 
0 
0 
0 
0 
0 
0 
0 
0 
0 
0 
0 
0 
0 
0 
0 
0 
0 
0 
0 
0 
0 
0 
0 
0 
0 
0 
0 
0 
0 
0 
0 
0 
0 
0 
0 
0 
0 
0 
0 
0 
0 
0 
0 
0 
0 
0 
0 
0 
0 
0 
0 
0 
0 
0 
0 
0 
0 
0 
0 
0 
0 
0 
0 
0 
0 
0 
0 
0 
0 
0 
0 
0 
0 
0 
0 
0 
0 
0 
0 
0 
0 
0 
0 
0 
0 
0 
0 
0 
0 
0 
0 
0 
0 
0 
0 
0 
0 
0 
0 
0 
0 
0 
0 
0 
0 
0 
0 
0 
0 
0 
0 
0 
0 
0 
0 
0 
0 
0 
0 
0 
0 
0 
0 
0 
0 
0 
0 
0 
0 
0 
0 
0 
0 
0 
0 
0 
0 
0 
0 
0 
0 
0 
0 
0 
0 
0 
0 
0 
0 
0 
0 
0 
0 
0 
0 
0 
0 
0 
0 
0 
0 
0 
0 
0 
0 
0 
0 
0 
0 
0 
0 
0 
0 
0 
0 
0 
0 
0 
0 
0 
0 
0 
0 
0 
0 
0 
0 
0 
0 
0 
0 
0 
0 
0 
0 
0 
0 
0 
0 
0 
0 
0 
0 
0 
0 
0 
0 
0 
0 
0 
0 
0 
0 
0 
0 
0 
0 
0 
0 
0 
0 
0 
0 
0 
0 
0 
0 
0 
0 
0 
0 
0 
0 
0 
0 
0 
0 
0 
0 
0 
0 
0 
0 
0 
0 
0 
0 
0 
0 
0 
0 
0 
0 
0 
0 
0 
0 
0 
0 
0 
0 
0 
0 
0 
0 
0 
0 
0 
0 
0 
0 
0 
0 
0 
0 
0 
0 
0 
0 
0 
0 
0 
0 
0 
0 
0 
0 
0 
0 
0 
0 
0 
0 
0 
0 
0 
0 
0 
0 
0 
0 
0 
0 
0 
0 
0 
0 
0 
0 
0 
0 
0 
0 
0 
0 
0 
0 
0 
0 
0 
0 
0 
0 
0 
0 
0 
0 
0 
0 
0 
0 
0 
0 
0 
0 
0 
0 
0 
0 
0 
0 
0 
0 
0 
0 
0 
0 
0 
0 
0 
0 
0 
0 
0 
0 
0 
0 
0 
0 
0 
0 
0 
0 
0 
0 
0 
0 
0 
0 
0 
0 
0 
0 
0 
0 
0 
0 
0 
0 
0 
0 
0 
0 
0 
0 
0 
0 
0 
0 
0 
0 
0 
0 
0 
0 
0 
0 
0 
0 
0 
0 
0 
0 
0 
0 
0 
0 
0 
0 
0 
0 
0 
0 
0 
0 
0 
0 
0 
0 
0 
0 
0 
0 
0 
0 
0 
0 
0 
0 
0 
0 
0 
0 
0 
0 
0 
0 
0 
0 
0 
0 
0 
0 
0 
0 
0 
0 
0 
0 
0 
0 
0 
0 
0 
0 
0 
0 
0 
0 
0 
0 
0 
0 
0 
0 
0 
0 
0 
0 
0 
0 
0 
0 
0 
0 
0 
0 
0 
0 
0 
0 
0 
0 
0 
0 
0 
0 
0 
0 
0 
0 
0 
0 
0 
0 
0 
0 
0 
0 
0 
0 
0 
0 
0 
0 
0 
0 
0 
0 
0 
0 
0 
0 
0 
0 
0 
0 
0 
0 
0 
0 
0 
0 
0 
0 
0 
0 
0 
0 
0 
0 
0 
0 
0 
0 
0 
0 
0 
0 
0 
0 
0 
0 
0 
0 
0 
0 
0 
0 
0 
0 
0 
0 
0 
0 
0 
0 
0 
0 
0 
0 
0 
0 
0 
0 
0 
0 
0 
0 
0 
0 
0 
0 
0 
0 
0 
0 
0 
0 
0 
0 
0 
0 
0 
0 
0 
0 
0 
0 
0 
0 
0 
0 
0 
0 
0 
0 
0 
0 
0 
0 
0 
0 
0 
0 
0 
0 
0 
0 
0 
0 
0 
0 
0 
0 
0 
0 
0 
0 
0 
0 
0 
0 
0 
0 
0 
0 
0 
0 
0 
0 
0 
0 
0 
0 
0 
0 
0 
0 
0 
0 
0 
0 
0 
0 
0 
0 
0 
0 
0 
0 
0 
0 
0 
0 
0 
0 
0 
0 
0 
0 
0 
0 
0 
0 
0 
0 
0 
0 
0 
0 
0 
0 
0 
0 
0 
0 
0 
0 
0 
0 
0 
0 
0 
0 
0 
0 
0 
0 
0 
0 
0 
0 
0 
0 
0 
0 
0 
0 
0 
0 
0 
0 
0 
0 
0 
0 
0 
SCALARS SKINFACES int 1
LOOKUP_TABLE default
0 
0 
0 
0 
0 
0 
0 
0 
0 
0 
0 
0 
0 
0 
0 
0 
0 
0 
0 
0 
0 
0 
0 
0 
0 
0 
0 
0 
0 
0 
0 
0 
0 
0 
0 
0 
0 
0 
0 
0 
0 
0 
0 
0 
0 
0 
0 
0 
0 
0 
0 
0 
0 
0 
0 
0 
0 
0 
0 
0 
0 
0 
0 
0 
0 
0 
0 
0 
0 
0 
0 
0 
0 
0 
0 
0 
0 
0 
0 
0 
0 
0 
0 
0 
0 
0 
0 
0 
0 
0 
0 
0 
0 
0 
0 
0 
0 
0 
0 
0 
0 
0 
0 
0 
0 
0 
0 
0 
0 
0 
0 
0 
0 
0 
0 
0 
0 
0 
0 
0 
0 
0 
0 
0 
0 
0 
0 
0 
0 
0 
0 
0 
0 
0 
0 
0 
0 
0 
0 
0 
0 
0 
0 
0 
0 
0 
0 
0 
0 
0 
0 
0 
0 
0 
0 
0 
0 
0 
0 
0 
0 
0 
0 
0 
0 
0 
0 
0 
0 
0 
0 
0 
0 
0 
0 
0 
0 
0 
0 
0 
0 
0 
0 
0 
0 
0 
0 
0 
0 
0 
0 
0 
0 
0 
0 
0 
0 
0 
0 
0 
0 
0 
0 
0 
0 
0 
0 
0 
0 
0 
0 
0 
0 
0 
0 
0 
0 
0 
0 
0 
0 
0 
0 
0 
0 
0 
0 
0 
0 
0 
0 
0 
0 
0 
0 
0 
0 
0 
0 
0 
0 
0 
0 
0 
0 
0 
0 
0 
0 
0 
0 
0 
0 
0 
0 
0 
0 
0 
0 
0 
0 
0 
0 
0 
0 
0 
0 
0 
0 
0 
0 
0 
0 
0 
0 
0 
0 
0 
0 
0 
0 
0 
0 
0 
0 
0 
0 
0 
0 
0 
0 
0 
0 
0 
0 
0 
0 
0 
0 
0 
0 
0 
0 
0 
0 
0 
0 
0 
0 
0 
0 
0 
0 
0 
0 
0 
0 
0 
0 
0 
0 
0 
0 
0 
0 
0 
0 
0 
0 
0 
0 
0 
0 
0 
0 
0 
0 
0 
0 
0 
0 
0 
0 
0 
0 
0 
0 
0 
0 
0 
0 
0 
0 
0 
0 
0 
0 
0 
0 
0 
0 
0 
0 
0 
0 
0 
0 
0 
0 
0 
0 
0 
0 
0 
0 
0 
0 
0 
0 
0 
0 
0 
0 
0 
0 
0 
0 
0 
0 
0 
0 
0 
0 
0 
0 
0 
0 
0 
0 
0 
0 
0 
0 
0 
0 
0 
0 
0 
0 
0 
0 
0 
0 
0 
0 
0 
0 
0 
0 
0 
0 
0 
0 
0 
0 
0 
0 
0 
0 
0 
0 
0 
0 
0 
0 
0 
0 
0 
0 
0 
0 
0 
0 
0 
0 
0 
0 
0 
0 
0 
0 
0 
0 
0 
0 
0 
0 
0 
0 
0 
0 
0 
0 
0 
0 
0 
0 
0 
0 
0 
0 
0 
0 
0 
0 
0 
0 
0 
0 
0 
0 
0 
0 
0 
0 
0 
0 
0 
0 
0 
0 
0 
0 
0 
0 
0 
0 
0 
0 
0 
0 
0 
0 
0 
0 
0 
0 
0 
0 
0 
0 
0 
0 
0 
0 
0 
0 
0 
0 
0 
0 
0 
0 
0 
0 
0 
0 
0 
0 
0 
0 
0 
0 
0 
0 
0 
0 
0 
0 
0 
0 
0 
0 
0 
0 
0 
0 
0 
0 
0 
0 
0 
0 
0 
0 
0 
0 
0 
0 
0 
0 
0 
0 
0 
0 
0 
0 
0 
0 
0 
0 
0 
0 
0 
0 
0 
0 
0 
0 
0 
0 
0 
0 
0 
0 
0 
0 
0 
0 
0 
0 
0 
0 
0 
0 
0 
0 
0 
0 
0 
0 
0 
0 
0 
0 
0 
0 
0 
0 
0 
0 
0 
0 
0 
0 
0 
0 
0 
0 
0 
0 
0 
0 
0 
0 
0 
0 
0 
0 
0 
0 
0 
0 
0 
0 
0 
0 
0 
0 
0 
0 
0 
0 
0 
0 
0 
0 
0 
0 
0 
0 
0 
0 
0 
0 
0 
0 
0 
0 
0 
0 
0 
0 
0 
0 
0 
0 
0 
0 
0 
0 
0 
0 
0 
0 
0 
0 
0 
0 
0 
0 
0 
0 
0 
0 
0 
0 
0 
0 
0 
0 
0 
0 
0 
400 
400 
400 
400 
400 
400 
400 
400 
400 
400 
400 
400 
400 
400 
400 
400 
400 
400 
400 
400 
400 
400 
400 
400 
400 
400 
400 
400 
400 
400 
400 
400 
0 
0 
0 
0 
0 
0 
0 
0 
0 
0 
0 
0 
0 
0 
0 
0 
0 
0 
0 
0 
0 
0 
0 
0 
0 
0 
0 
0 
0 
0 
0 
0 
0 
0 
0 
0 
0 
0 
0 
0 
0 
0 
0 
0 
0 
0 
0 
0 
0 
0 
0 
0 
0 
0 
0 
0 
0 
0 
0 
0 
0 
0 
0 
0 
0 
0 
0 
0 
0 
0 
0 
0 
0 
0 
0 
0 
0 
0 
0 
0 
0 
0 
0 
0 
0 
0 
0 
0 
0 
0 
0 
0 
0 
0 
0 
0 
0 
0 
0 
0 
0 
0 
0 
0 
0 
0 
0 
0 
0 
0 
0 
0 
0 
0 
0 
0 
0 
0 
0 
0 
0 
0 
0 
0 
0 
0 
0 
0 
0 
0 
0 
0 
0 
0 
0 
0 
0 
0 
0 
0 
0 
0 
0 
0 
0 
0 
0 
0 
0 
0 
0 
0 
0 
0 
0 
0 
0 
0 
0 
0 
0 
0 
0 
0 
0 
0 
0 
0 
0 
0 
0 
0 
0 
0 
0 
0 
0 
0 
0 
0 
0 
0 
0 
0 
0 
0 
0 
0 
0 
0 
0 
0 
0 
0 
0 
0 
0 
0 
0 
SCALARS SKINVOLUMES int 1
LOOKUP_TABLE default
0 
0 
0 
0 
0 
0 
0 
0 
0 
0 
0 
0 
0 
0 
0 
0 
0 
0 
0 
0 
0 
0 
0 
0 
0 
0 
0 
0 
0 
0 
0 
0 
0 
0 
0 
0 
0 
0 
0 
0 
0 
0 
0 
0 
0 
0 
0 
0 
0 
0 
0 
0 
0 
0 
0 
0 
0 
0 
0 
0 
0 
0 
0 
0 
0 
0 
0 
0 
0 
0 
0 
0 
0 
0 
0 
0 
0 
0 
0 
0 
0 
0 
0 
0 
0 
0 
0 
0 
0 
0 
0 
0 
0 
0 
0 
0 
0 
0 
0 
0 
0 
0 
0 
0 
0 
0 
0 
0 
0 
0 
0 
0 
0 
0 
0 
0 
0 
0 
0 
0 
0 
0 
0 
0 
0 
0 
0 
0 
0 
0 
0 
0 
0 
0 
0 
0 
0 
0 
0 
0 
0 
0 
0 
0 
0 
0 
0 
0 
0 
0 
0 
0 
0 
0 
0 
0 
0 
0 
0 
0 
0 
0 
0 
0 
0 
0 
0 
0 
0 
0 
0 
0 
0 
0 
0 
0 
0 
0 
0 
0 
0 
0 
0 
0 
0 
0 
0 
0 
0 
0 
0 
0 
0 
0 
0 
0 
0 
0 
0 
0 
0 
0 
0 
0 
0 
0 
0 
0 
0 
0 
0 
0 
0 
0 
0 
0 
0 
0 
0 
0 
0 
0 
0 
0 
0 
0 
0 
0 
0 
0 
0 
0 
0 
0 
0 
0 
0 
0 
0 
0 
0 
0 
0 
0 
0 
0 
0 
0 
0 
0 
0 
0 
0 
0 
0 
0 
0 
0 
0 
0 
0 
0 
0 
0 
0 
0 
0 
0 
0 
0 
0 
0 
0 
0 
0 
0 
0 
0 
0 
0 
0 
0 
0 
0 
0 
0 
0 
0 
0 
0 
0 
0 
0 
0 
0 
0 
0 
0 
0 
0 
0 
0 
0 
0 
0 
0 
0 
0 
0 
0 
0 
0 
0 
0 
0 
0 
0 
0 
0 
0 
0 
0 
0 
0 
0 
0 
0 
0 
0 
0 
0 
0 
0 
0 
0 
0 
0 
0 
0 
0 
0 
0 
0 
0 
0 
0 
0 
0 
0 
0 
0 
0 
0 
0 
0 
0 
0 
0 
0 
0 
0 
0 
0 
0 
0 
0 
0 
0 
0 
0 
0 
0 
0 
0 
0 
0 
0 
0 
0 
0 
0 
0 
0 
0 
0 
0 
0 
0 
0 
0 
0 
0 
0 
0 
0 
0 
0 
0 
0 
0 
0 
0 
0 
0 
0 
0 
0 
0 
0 
0 
0 
0 
0 
0 
0 
0 
0 
0 
0 
0 
0 
0 
0 
0 
0 
0 
0 
0 
0 
0 
0 
0 
0 
0 
0 
0 
0 
0 
0 
0 
0 
0 
0 
0 
0 
0 
0 
0 
0 
0 
0 
0 
0 
0 
0 
0 
0 
0 
0 
0 
0 
0 
0 
0 
0 
0 
0 
0 
0 
0 
0 
0 
0 
0 
0 
0 
0 
0 
0 
0 
0 
0 
0 
0 
0 
0 
0 
0 
0 
0 
0 
0 
0 
0 
0 
0 
0 
0 
0 
0 
0 
0 
0 
0 
0 
0 
0 
0 
0 
0 
0 
0 
0 
0 
0 
0 
0 
0 
0 
0 
0 
0 
0 
0 
0 
0 
0 
0 
0 
0 
0 
0 
0 
0 
0 
0 
0 
0 
0 
0 
0 
0 
0 
0 
0 
0 
0 
0 
0 
0 
0 
0 
0 
0 
0 
0 
0 
0 
0 
0 
0 
0 
0 
0 
0 
0 
0 
0 
0 
0 
0 
0 
0 
0 
0 
0 
0 
0 
0 
0 
0 
0 
0 
0 
0 
0 
0 
0 
0 
0 
0 
0 
0 
0 
0 
0 
0 
0 
0 
0 
0 
0 
0 
0 
0 
0 
0 
0 
0 
0 
0 
0 
0 
0 
0 
0 
0 
0 
0 
0 
0 
0 
0 
0 
0 
0 
0 
0 
0 
0 
0 
0 
0 
0 
0 
0 
0 
0 
0 
0 
0 
0 
0 
0 
0 
0 
0 
0 
0 
0 
0 
0 
0 
0 
0 
0 
0 
0 
0 
0 
0 
0 
0 
0 
0 
0 
0 
0 
0 
0 
0 
0 
0 
0 
0 
0 
0 
0 
0 
0 
0 
0 
0 
0 
0 
0 
0 
0 
0 
0 
0 
0 
0 
0 
0 
0 
0 
0 
0 
0 
0 
0 
0 
0 
0 
0 
0 
0 
0 
0 
0 
0 
0 
0 
0 
0 
0 
0 
0 
0 
0 
0 
0 
0 
0 
0 
800 
800 
800 
800 
800 
800 
800 
800 
800 
800 
800 
800 
800 
800 
800 
800 
800 
800 
800 
800 
800 
800 
800 
800 
800 
800 
800 
800 
800 
800 
800 
800 
800 
800 
800 
800 
800 
800 
800 
800 
800 
800 
800 
800 
800 
800 
800 
800 
800 
800 
800 
800 
800 
800 
800 
800 
800 
800 
800 
800 
800 
800 
800 
800 
800 
800 
800 
800 
800 
800 
800 
800 
800 
800 
800 
800 
800 
800 
800 
800 
800 
800 
800 
800 
800 
800 
800 
800 
800 
800 
800 
800 
800 
800 
800 
800 
800 
800 
800 
800 
800 
800 
800 
800 
800 
800 
800 
800 
800 
800 
800 
800 
800 
800 
800 
800 
800 
800 
800 
800 
800 
800 
800 
800 
800 
800 
800 
800 
800 
800 
800 
800 
800 
800 
800 
800 
800 
800 
0 
800 
800 
800 
800 
800 
800 
800 
800 
800 
800 
800 
800 
800 
800 
800 
800 
800 
800 
800 
800 
800 
800 
800 
800 
800 
800 
800 
800 
800 
800 
800 
800 
800 
800 
800 
800 
800 
800 
800 
800 
800 
800 
800 
800 
800 
800 
800 
800 
800 
800 
800 
800 
800 
800 
800 
800 
800 
800 
800 
800 
SCALARS ID-EDGES int 1
LOOKUP_TABLE default
0 
1 
2 
3 
4 
5 
6 
7 
8 
9 
10 
11 
12 
13 
14 
15 
16 
17 
18 
19 
20 
21 
22 
23 
24 
25 
26 
27 
28 
29 
30 
31 
32 
33 
34 
35 
36 
37 
38 
39 
40 
41 
42 
43 
44 
45 
46 
47 
48 
49 
50 
51 
52 
53 
54 
55 
56 
57 
58 
59 
60 
61 
62 
63 
64 
65 
66 
67 
68 
69 
70 
71 
72 
73 
74 
75 
76 
77 
78 
79 
80 
81 
82 
83 
84 
85 
86 
87 
88 
89 
90 
91 
92 
93 
94 
95 
96 
97 
98 
99 
100 
101 
102 
103 
104 
105 
106 
107 
108 
109 
110 
111 
112 
113 
114 
115 
116 
117 
118 
119 
120 
121 
122 
123 
124 
125 
126 
127 
128 
129 
130 
131 
132 
133 
134 
135 
136 
137 
138 
139 
140 
141 
142 
143 
144 
145 
146 
147 
148 
149 
150 
151 
152 
153 
154 
155 
156 
157 
158 
159 
160 
161 
162 
163 
164 
165 
166 
167 
168 
169 
170 
171 
172 
173 
174 
175 
176 
177 
178 
179 
180 
181 
182 
183 
184 
185 
186 
187 
188 
189 
190 
191 
192 
193 
194 
195 
196 
197 
198 
199 
200 
201 
202 
203 
204 
205 
206 
207 
208 
209 
210 
211 
212 
213 
214 
215 
216 
217 
218 
219 
220 
221 
222 
223 
224 
225 
226 
227 
228 
229 
230 
231 
232 
233 
234 
235 
236 
237 
238 
239 
240 
241 
242 
243 
244 
245 
246 
247 
248 
249 
250 
251 
252 
253 
254 
255 
256 
257 
258 
259 
260 
261 
262 
263 
264 
265 
266 
267 
268 
269 
270 
271 
272 
273 
274 
275 
276 
277 
278 
279 
280 
281 
282 
283 
284 
285 
286 
287 
288 
289 
290 
291 
292 
293 
294 
295 
0 
0 
0 
0 
0 
0 
0 
0 
0 
0 
0 
0 
0 
0 
0 
0 
0 
0 
0 
0 
0 
0 
0 
0 
0 
0 
0 
0 
0 
0 
0 
0 
0 
0 
0 
0 
0 
0 
0 
0 
0 
0 
0 
0 
0 
0 
0 
0 
0 
0 
0 
0 
0 
0 
0 
0 
0 
0 
0 
0 
0 
0 
0 
0 
0 
0 
0 
0 
0 
0 
0 
0 
0 
0 
0 
0 
0 
0 
0 
0 
0 
0 
0 
0 
0 
0 
0 
0 
0 
0 
0 
0 
0 
0 
0 
0 
0 
0 
0 
0 
0 
0 
0 
0 
0 