# vtk DataFile Version 3.0
MOAB 5.0.1
ASCII
DATASET UNSTRUCTURED_GRID
POINTS 67 double
-1 -0.4 0
-1 -0.4 0.1
-0.8 -0.4125 0
-0.8 -0.4125 0.1
-0.6 -0.425 0
-1.222228092 -0.3325878455 0
-1.153073372 -0.3695518134 0
-1.078036128 -0.3923141123 0
-0.6 -0.425 0.1
-1.078036129 -0.3923141121 0.1
-1.153073374 -0.3695518125 0.1
-1.222228094 -0.3325878442 0.1
-1 -0.4 0.025
-1 -0.4 0.05
-1 -0.4 0.075
-1 -0.3 0.025
-1 -0.3 0.05
-0.8763116554 -0.3512333901 0.1
-0.7526233108 -0.3024667803 0.1
-0.8 -0.4125 0.025
-0.8 -0.4125 0.05
-0.8 -0.4125 0.075
-0.8754845318 -0.3539820895 0
-1 -0.325 0
-1 -0.375 0
-0.9469669913 -0.3530330085 0
-1.147247364 -0.330486585 0
-1.076536686 -0.3597759067 0
-1.070710678 -0.3207106783 0
-1 -0.35 0
-0.9469669913 -0.3280330085 0
-0.6754845318 -0.3664820895 0
-0.4754845318 -0.3789820895 0
-0.7509690636 -0.3079641789 0
-0.5509690636 -0.3204641789 0
-0.6 -0.425 0.025
-0.6 -0.425 0.075
-0.6 -0.425 0.05
-1.078036129 -0.3923141122 0.075
-1.222228093 -0.3325878453 0.025
-1.153073372 -0.3695518133 0.025
-1.078036128 -0.3923141123 0.025
-1.153073373 -0.3695518128 0.075
-1.222228094 -0.3325878445 0.075
-1.078036129 -0.3923141122 0.05
-1.222228093 -0.332587845 0.05
-1.153073373 -0.3695518132 0.05
-0.9414729037 -0.2942355842 0.075
-0.9414729036 -0.2942355842 0.05
-0.8851949708 -0.27716386 0.05
-1.058527096 -0.2942355841 0.05
-0.4763116554 -0.3762333901 0.1
-0.6763116554 -0.3637333901 0.1
-1 -0.375 0.1
-0.9469669916 -0.3530330088 0.1
-1 -0.325 0.1
-1.076536687 -0.3597759063 0.1
-1.147247365 -0.3304865841 0.1
-1 -0.35 0.1
-1.070710678 -0.3207106779 0.1
-0.9469669916 -0.3280330088 0.1
-1.036065699 -0.366181189 0.0125000004
-1.036051951 -0.3483793294 0.06300950183
-1.101978245 -0.334060269 0.046242396
-1.169502234 -0.3084755849 0.04603179688
-0.9637563132 -0.3625 0.0625
-1.040984825 -0.3816269624 0.02718058433
CELLS 342 1368
3 2 0 22
3 7 24 0
3 25 0 24
3 0 25 22
3 5 26 6
3 6 27 7
3 26 27 6
3 28 29 27
3 28 23 29
3 27 29 24
3 30 24 29
3 27 24 7
3 28 27 26
3 25 24 30
3 4 2 31
3 4 31 32
3 31 33 34
3 31 22 33
3 2 22 31
3 31 34 32
3 2 0 12
3 3 21 1
3 21 14 1
3 19 12 13
3 20 13 14
3 19 13 20
3 2 12 19
3 20 14 21
3 4 2 19
3 4 19 35
3 8 36 3
3 35 20 37
3 37 20 21
3 36 37 21
3 36 21 3
3 19 20 35
3 12 0 7
3 1 38 9
3 1 14 38
3 40 6 5
3 41 7 6
3 41 6 40
3 9 42 10
3 10 43 11
3 42 43 10
3 13 12 41
3 14 13 44
3 13 41 44
3 38 44 46
3 44 40 46
3 38 46 42
3 46 40 39
3 46 39 45
3 46 45 42
3 40 5 39
3 12 7 41
3 38 42 9
3 14 44 38
3 41 40 44
3 45 43 42
3 8 3 52
3 8 52 51
3 52 17 18
3 3 17 52
3 3 1 17
3 53 1 9
3 54 1 53
3 1 54 17
3 56 9 10
3 57 10 11
3 56 10 57
3 55 58 59
3 58 56 59
3 58 53 56
3 60 53 58
3 53 9 56
3 56 57 59
3 54 53 60
3 12 2 22
3 12 22 0
3 0 12 25
3 12 22 25
3 0 12 24
3 12 25 24
3 7 12 24
3 1 17 21
3 17 3 21
3 9 53 38
3 53 1 38
3 14 38 53
3 14 53 1
3 1 53 65
3 53 54 65
3 1 65 54
3 1 14 65
3 14 53 65
3 65 54 17
3 65 17 1
3 65 17 21
3 65 21 1
3 21 14 65
3 22 19 2
3 22 12 19
3 31 22 19
3 31 19 2
3 19 4 31
3 52 3 21
3 52 21 17
3 36 3 52
3 36 52 8
3 36 21 52
3 32 35 4
3 31 4 35
3 31 35 32
3 19 35 31
3 6 26 64
3 26 5 64
3 6 64 5
3 5 40 64
3 6 64 40
3 39 40 64
3 39 64 5
3 41 6 63
3 6 40 63
3 41 63 40
3 6 27 63
3 27 26 63
3 6 63 26
3 64 40 63
3 64 63 6
3 64 63 26
3 27 41 7
3 27 6 41
3 41 27 63
3 12 7 66
3 7 41 66
3 12 66 41
3 61 24 27
3 61 27 7
3 61 7 24
3 41 61 27
3 41 7 61
3 7 61 66
3 41 66 61
3 61 66 12
3 61 12 7
3 12 24 61
3 51 8 36
3 51 36 52
3 9 53 62
3 53 38 62
3 9 62 38
3 9 56 62
3 56 53 62
3 38 56 62
3 9 56 38
3 10 56 42
3 9 42 56
3 38 42 56
3 10 57 42
3 57 56 42
3 11 57 43
3 10 43 57
3 43 57 42
3 12 22 65
3 22 25 65
3 12 65 25
3 41 13 66
3 12 66 13
3 24 12 65
3 24 65 25
3 24 13 65
3 13 12 65
3 24 12 13
3 19 65 13
3 12 65 19
3 65 19 22
3 13 61 66
3 12 61 13
3 61 13 24
3 20 13 65
3 13 14 65
3 20 65 14
3 13 44 66
3 44 62 66
3 13 66 62
3 13 62 44
3 66 62 61
3 13 61 62
3 62 65 61
3 13 61 65
3 13 65 62
3 44 66 41
3 13 58 62
3 58 65 62
3 13 65 58
3 65 24 61
3 44 14 62
3 14 13 62
3 14 58 62
3 13 58 14
3 14 65 58
3 20 19 65
3 44 38 62
3 38 14 62
3 53 14 62
3 58 62 53
3 58 53 14
3 53 65 58
3 65 21 20
3 23 29 15
3 15 29 61
3 16 61 29
3 23 29 61
3 23 61 15
3 29 30 16
3 28 23 61
3 29 62 61
3 16 61 62
3 16 62 29
3 62 50 61
3 16 58 62
3 29 65 62
3 16 62 65
3 16 65 29
3 16 30 65
3 30 48 65
3 16 58 65
3 29 30 65
3 58 55 62
3 65 47 58
3 20 17 65
3 17 22 65
3 20 65 22
3 20 22 17
3 17 49 22
3 21 20 17
3 54 49 17
3 65 49 22
3 17 49 65
3 54 49 65
3 52 20 18
3 17 18 20
3 17 20 52
3 20 52 21
3 33 18 20
3 33 20 17
3 33 17 18
3 22 33 20
3 17 33 22
3 52 33 18
3 52 20 33
3 20 19 22
3 20 31 19
3 35 31 20
3 22 20 31
3 21 37 52
3 37 20 52
3 31 33 52
3 31 52 20
3 31 20 33
3 35 52 37
3 20 52 35
3 52 35 31
3 37 52 36
3 22 49 25
3 25 65 49
3 28 29 61
3 24 29 61
3 29 27 61
3 65 29 61
3 24 29 65
3 30 65 24
3 30 65 25
3 25 48 30
3 25 48 65
3 26 28 63
3 28 63 27
3 28 27 61
3 28 63 61
3 63 27 61
3 41 61 63
3 34 52 33
3 34 52 31
3 31 35 34
3 32 34 35
3 34 52 35
3 34 37 51
3 34 35 37
3 34 52 37
3 51 52 37
3 51 34 52
3 36 51 37
3 38 42 63
3 42 56 63
3 38 63 56
3 38 44 63
3 44 46 63
3 38 63 46
3 46 42 63
3 63 56 62
3 63 62 38
3 63 62 44
3 39 46 64
3 46 40 64
3 39 45 64
3 45 46 64
3 40 44 63
3 44 41 63
3 40 46 63
3 64 46 63
3 44 66 61
3 44 61 41
3 61 63 44
3 42 57 63
3 56 63 57
3 57 42 64
3 42 43 64
3 57 64 43
3 45 43 64
3 45 64 42
3 42 46 64
3 64 57 63
3 64 63 42
3 62 44 61
3 62 61 63
3 65 47 60
3 47 58 60
3 65 60 58
3 65 54 60
3 54 47 60
3 65 47 54
3 63 50 62
3 50 63 61
3 59 57 63
3 56 58 62
3 53 65 60
3 59 55 62
3 59 62 58
3 62 59 63
3 56 59 62
3 59 56 63
CELL_TYPES 342
5
5
5
5
5
5
5
5
5
5
5
5
5
5
5
5
5
5
5
5
5
5
5
5
5
5
5
5
5
5
5
5
5
5
5
5
5
5
5
5
5
5
5
5
5
5
5
5
5
5
5
5
5
5
5
5
5
5
5
5
5
5
5
5
5
5
5
5
5
5
5
5
5
5
5
5
5
5
5
5
5
5
5
5
5
5
5
5
5
5
5
5
5
5
5
5
5
5
5
5
5
5
5
5
5
5
5
5
5
5
5
5
5
5
5
5
5
5
5
5
5
5
5
5
5
5
5
5
5
5
5
5
5
5
5
5
5
5
5
5
5
5
5
5
5
5
5
5
5
5
5
5
5
5
5
5
5
5
5
5
5
5
5
5
5
5
5
5
5
5
5
5
5
5
5
5
5
5
5
5
5
5
5
5
5
5
5
5
5
5
5
5
5
5
5
5
5
5
5
5
5
5
5
5
5
5
5
5
5
5
5
5
5
5
5
5
5
5
5
5
5
5
5
5
5
5
5
5
5
5
5
5
5
5
5
5
5
5
5
5
5
5
5
5
5
5
5
5
5
5
5
5
5
5
5
5
5
5
5
5
5
5
5
5
5
5
5
5
5
5
5
5
5
5
5
5
5
5
5
5
5
5
5
5
5
5
5
5
5
5
5
5
5
5
5
5
5
5
5
5
5
5
5
5
5
5
5
5
5
5
5
5
5
5
5
5
5
5
5
5
5
5
5
5
5
5
5
5
5
5
5
5
5
5
5
5
5
5
5
5
5
5
POINT_DATA 67
SCALARS GLOBAL_ID int 1
LOOKUP_TABLE default
11 
25 
59 
86 
97 
113 
114 
115 
233 
234 
235 
236 
313 
314 
315 
321 
322 
534 
537 
590 
591 
592 
593 
695 
696 
697 
704 
705 
712 
713 
714 
795 
796 
849 
850 
1058 
1064 
1066 
1077 
1079 
1081 
1082 
1083 
1084 
1085 
1087 
1088 
1120 
1121 
1122 
1140 
1381 
1382 
1480 
1481 
1482 
1490 
1491 
1497 
1498 
1499 
2172 
2173 
2175 
2178 
2179 
2180 
SCALARS LOCAL_ID_L1 int 1
LOOKUP_TABLE default
0 
1 
2 
3 
0 
10 
6 
7 
9 
9 
10 
25 
12 
13 
14 
38 
39 
52 
53 
19 
20 
21 
61 
71 
24 
72 
79 
27 
86 
87 
88 
31 
13 
97 
20 
25 
30 
31 
38 
131 
40 
41 
42 
133 
44 
135 
46 
145 
146 
147 
160 
48 
44 
53 
170 
171 
56 
179 
185 
186 
187 
244 
245 
247 
250 
251 
66 
CELL_DATA 342
SCALARS GLOBAL_ID int 1
LOOKUP_TABLE default
104 
105 
106 
107 
117 
118 
119 
134 
135 
136 
138 
157 
166 
168 
265 
267 
368 
369 
528 
583 
1088 
1089 
1090 
1091 
1092 
1093 
1094 
1095 
1105 
1107 
1115 
1121 
1123 
1124 
1144 
1146 
1176 
1177 
1178 
1185 
1186 
1187 
1188 
1189 
1190 
1191 
1192 
1193 
1200 
1201 
1202 
1203 
1204 
1205 
1207 
1208 
1209 
1211 
1214 
1215 
2001 
2002 
2148 
2246 
2341 
2342 
2343 
2344 
2361 
2362 
2363 
2377 
2379 
2380 
2381 
2409 
2422 
2423 
4643 
4644 
4645 
4646 
4647 
4648 
4649 
4739 
4740 
4741 
4742 
4743 
4744 
4745 
4746 
4747 
4748 
4749 
4750 
4751 
4752 
4753 
4754 
5073 
5074 
5075 
5076 
5077 
5530 
5531 
5532 
5533 
5534 
5628 
5629 
5630 
5631 
5718 
5719 
5720 
5723 
5724 
5725 
5726 
5730 
5731 
5732 
5733 
5734 
5735 
5736 
5737 
5738 
5739 
5740 
5741 
5742 
5743 
5744 
5745 
5746 
5747 
5748 
5749 
5750 
5751 
5752 
5753 
5754 
6680 
6681 
6683 
6684 
6685 
6686 
6687 
6688 
6689 
6690 
6691 
6692 
6693 
6694 
6695 
6696 
6697 
7407 
7408 
7409 
7410 
7411 
7412 
7413 
7414 
7415 
7416 
7417 
7418 
7419 
7420 
7421 
7422 
7423 
7424 
7425 
7426 
7427 
7428 
7429 
7430 
7431 
7432 
7433 
7434 
7435 
7436 
7437 
7438 
7439 
7440 
7441 
7442 
7443 
7444 
7445 
7446 
7447 
7448 
7449 
7450 
7451 
7452 
7550 
7561 
7562 
7564 
7565 
7569 
7573 
7591 
7592 
7593 
7594 
7596 
7600 
7601 
7602 
7604 
7605 
7607 
7613 
7630 
7636 
9585 
9586 
9587 
9588 
9595 
9596 
9597 
9599 
9600 
9603 
9604 
9605 
9606 
9607 
9608 
9609 
9610 
9613 
9614 
9650 
9651 
10431 
10432 
10433 
10434 
10435 
10436 
10437 
10438 
10439 
10440 
10441 
10442 
10443 
10445 
10446 
11298 
11299 
11300 
11301 
11302 
11303 
11304 
11305 
11308 
11359 
11360 
11361 
11362 
11363 
11364 
12343 
12621 
12622 
12623 
12624 
12629 
12632 
13112 
13113 
13114 
14435 
14457 
14458 
14459 
14460 
14461 
14462 
14463 
14464 
14465 
14466 
14470 
14471 
14472 
14473 
14484 
14485 
14486 
14487 
14488 
14489 
14490 
14491 
14492 
14493 
14494 
14495 
14496 
14497 
14498 
14499 
14500 
14506 
14507 
14651 
14652 
14653 
14655 
14656 
14657 
14692 
14763 
14769 
15262 
15263 
15264 
15265 
15267 
15273 
15274 
SCALARS LOCAL_ID_L1 int 1
LOOKUP_TABLE default
0 
1 
2 
3 
4 
5 
6 
7 
8 
9 
10 
11 
12 
13 
14 
15 
16 
17 
18 
19 
20 
21 
22 
23 
24 
25 
26 
27 
28 
29 
30 
31 
32 
33 
34 
35 
36 
37 
38 
39 
40 
41 
42 
43 
44 
45 
46 
47 
48 
49 
50 
51 
52 
53 
54 
55 
56 
57 
58 
59 
60 
61 
62 
63 
64 
65 
66 
67 
68 
69 
70 
71 
72 
73 
74 
75 
76 
77 
78 
79 
80 
81 
82 
83 
84 
85 
86 
87 
88 
89 
90 
91 
92 
93 
94 
95 
96 
97 
98 
99 
100 
101 
102 
103 
104 
105 
106 
107 
108 
109 
110 
68 
112 
113 
114 
115 
506 
117 
118 
119 
120 
509 
122 
123 
124 
125 
126 
127 
128 
129 
513 
131 
132 
133 
134 
135 
136 
137 
138 
139 
140 
141 
142 
143 
144 
145 
146 
112 
148 
149 
150 
151 
152 
153 
154 
155 
156 
157 
158 
159 
160 
634 
162 
163 
164 
165 
166 
167 
168 
169 
170 
171 
172 
173 
174 
175 
176 
177 
178 
179 
180 
181 
182 
183 
184 
185 
186 
187 
188 
189 
190 
191 
192 
193 
194 
195 
196 
197 
198 
199 
200 
201 
202 
203 
204 
205 
206 
207 
208 
209 
735 
746 
747 
213 
749 
753 
757 
217 
775 
219 
776 
778 
222 
223 
224 
783 
784 
786 
228 
808 
814 
231 
232 
233 
234 
932 
236 
933 
238 
239 
937 
241 
242 
243 
244 
245 
246 
938 
248 
941 
951 
251 
252 
253 
254 
255 
256 
257 
258 
259 
260 
261 
262 
263 
264 
1037 
1038 
267 
268 
269 
270 
271 
272 
273 
1090 
1093 
1144 
277 
278 
1145 
280 
281 
1197 
283 
284 
174 
286 
179 
182 
289 
290 
219 
242 
293 
294 
295 
296 
297 
298 
299 
300 
301 
302 
303 
304 
1377 
306 
307 
308 
309 
310 
311 
312 
313 
314 
315 
316 
317 
1388 
1389 
320 
321 
1390 
323 
324 
325 
326 
1476 
328 
329 
1478 
1479 
1503 
1574 
1580 
335 
336 
1624 
338 
1626 
340 
341 
