# vtk DataFile Version 3.0
MOAB 5.0.1
ASCII
DATASET UNSTRUCTURED_GRID
POINTS 208 double
0.3279861953 0.6282144594 0.352081097
0.217262812 0.5170611576 0.6228180287
0.2174594293 0.6434232644 0.650216997
0.305206235 0.5085413838 0.5294944084
0.2458623363 0.664168433 0.3297129137
0.04089170894 0.5181786299 0.5641062785
0 0.5850506824 0.5485531183
0.2352190645 0.6119836287 0.3516848834
0 0.4467342431 0.5647374911
0.1753327859 0.6370661568 0.6972887953
0.1896777063 0.7175456459 0.6532758912
0.09888795896 0.5012851339 0.6525062042
0.1451182589 0.5798372712 0.6058299754
0.1042265499 0.5083928845 0.6064611879
0.3979733658 0.5247722146 0.529890622
0.2031145089 0.5629437753 0.694229901
0.3843399459 0.5530119784 0.4615376441
0.302216087 0.5889659519 0.4391694607
0.2487122735 0.509202764 0.6678362628
0.1723765479 0.6795214218 0.5368457849
0.1918295319 0.6787158578 0.4895069592
0.2112825159 0.6779102938 0.4421681335
0.2200922281 0.6249199255 0.4168012774
0.1855176434 0.6268627243 0.2953711046
0.239702629 0.5468625275 0.3085404589
0.3066996515 0.5238448508 0.3960250363
0.2586426753 0.4489086606 0.325794717
0.3324697598 0.5630933583 0.3089366726
0.2503459009 0.5990473319 0.2865684893
0 0.5487999866 0.4799926324
0 0.476298595 0.3428716605
0 0.5125492908 0.4114321465
0.09940284216 0.5503085081 0.3481176592
0.1748743715 0.57467792 0.3173430743
0.04970142108 0.5185146703 0.3047442381
0 0.7233671216 0.5323687455
0 0.4600506824 0.6735531183
0 0.4333944238 0.4953660014
0 0.6050439771 0.3968697813
0 0.5458824048 0.3291202991
0 0.6642055493 0.4646192634
0 0.6975386634 0.3823074161
0 0.6154662146 0.3153689377
0 0.5950380118 0.6614148387
0 0.7300253412 0.6492765592
0.321826488 0.5109085539 0.3309086423
0.2038260094 0.6716630282 0.581864019
0.2126357215 0.6186726599 0.5564971629
0.2320887055 0.617867096 0.5091583372
0.2262691414 0.5904328961 0.6248501409
0.2350788536 0.5374425278 0.5994832849
0.3142125645 0.5819131224 0.5315265205
0.244085183 0.6108142664 0.601515397
0.2036293921 0.5453009214 0.5544650507
0.1145296786 0.4906992779 0.2959416228
0.1642310997 0.5224931156 0.3393150439
0.2290593572 0.4946777232 0.3305124286
0.2489088908 0.6355648709 0.6952352311
0.3414794043 0.5254335948 0.6682324765
0.3211561333 0.491012085 0.4564237188
0.07644482691 0.582515266 0.6095200822
0.1119979449 0.6468519022 0.6549338859
0.07644482691 0.7208317052 0.5933357094
0.1344410769 0.5656217701 0.6979200078
0.1528896538 0.7182962889 0.6543026734
0.04089170894 0.7948115083 0.531737533
0.03555311798 0.6493873185 0.593966922
0.3949832178 0.6051967827 0.4395656744
0.02431165977 0.4977822989 0.5282263777
0.1948196799 0.5982912897 0.5798319068
0.131484839 0.608077035 0.5374769974
0.02431165977 0.5769371659 0.4442925228
0.02431165977 0.5044357743 0.3071715509
0.200639244 0.6257254895 0.4641401031
0.0652033687 0.5692266856 0.5275951651
0.1060950776 0.6406710723 0.5269639526
0.08178341787 0.5896230166 0.563475066
0.1840591949 0.6053291585 0.4282602023
0.1392164496 0.6387287598 0.4650859831
0.09832474062 0.5539445538 0.396345706
0.1237145019 0.5680234498 0.3939183932
0.1480261617 0.5857383915 0.4397191271
0.1557964987 0.6591250908 0.500965884
0.04862331954 0.5354905353 0.4223437746
0.09832474062 0.5672843731 0.4657171957
0.1597475351 0.5876142168 0.3824594683
0.04862331954 0.5488303546 0.4917152643
0.07401308085 0.4895566787 0.3634853297
0.04862331954 0.522150716 0.3529722849
0.02431165977 0.5635973465 0.3749210331
0.09940284216 0.5036355747 0.3610580168
0.2307354999 0.6771047299 0.3948293078
0.2260725241 0.4640707893 0.5974511727
0.1130362621 0.4554025162 0.5810943319
0.153927971 0.5268469029 0.5804631193
0.3235026307 0.6933355606 0.3952255215
0.1622227999 0.4914993886 0.6948611135
0.2084530998 0.5700515259 0.6481848848
0.3994667823 0.5400756815 0.39642125
0.3173429234 0.5760296551 0.3740530667
0.3120360155 0.6692961256 0.2919604167
0.2773682043 0.7081310455 0.6499285176
0.2579152203 0.7089366095 0.6972673433
0.2264657588 0.716795003 0.6522491091
0.3594920632 0.6721770719 0.6722967009
0.3354991082 0.686282731 0.4875825813
0.4069796953 0.5981439531 0.5319227342
0.3368523138 0.6270450972 0.6019116107
0.2667249324 0.6559462412 0.6719004872
0.2547284549 0.6629990707 0.5795434274
0.2427319774 0.6700519003 0.4871863676
0.3128593589 0.6411507563 0.4171974911
0.3248558363 0.6340979267 0.5095545509
0.3504857337 0.5988053334 0.6702645887
0.2577186029 0.5825745026 0.669868375
0.3278459844 0.5536733586 0.5998794985
0.2352754709 0.6638046347 0.6268822531
0.2232789934 0.6708574643 0.5345251933
0.1491042632 0.5354294125 0.404431438
0.1988056843 0.5205503169 0.4607452167
0.173415923 0.5531443542 0.4502321719
0.1491042632 0.4887564791 0.4173717956
0.1237145019 0.5213505164 0.4068587508
0.2915728151 0.5367811476 0.4611414304
0.2214454337 0.5656822916 0.5311303069
0.2094489562 0.5727351212 0.4387732471
0.2139325207 0.50761402 0.3956288226
0.2245757926 0.5597988244 0.373656853
0.2283890025 0.4747812543 0.4560275051
0.2124391042 0.4923105531 0.5290981947
0.1642310997 0.4758201823 0.3522554015
0.1899959722 0.5735406852 0.4861120728
0.18118626 0.6265310535 0.5114789288
0.07401308085 0.5162363173 0.5022283091
0.02431165977 0.4844424796 0.458854888
0.04970142108 0.4651882616 0.5387394225
0.04970142108 0.4518484423 0.4693679328
0.09940284216 0.48364228 0.5127413539
0.04970142108 0.4385086229 0.3999964431
0.02431165977 0.4711026603 0.3894833983
0.1237145019 0.5346903358 0.4762302405
0.1491042632 0.5020962984 0.4867432853
0.09940284216 0.4703024607 0.4433698642
0.07401308085 0.502896498 0.4328568194
0.09059313002 0.5366326483 0.53810821
0.1627376831 0.4738565346 0.5550962633
0.1402945511 0.5550866667 0.5121101414
0.1646062109 0.6061347225 0.475599028
0.1149047898 0.5876807041 0.5015970965
0.04862331954 0.6154965827 0.3270915696
0.07401308085 0.5829025454 0.3376046144
0.0729349793 0.6332115244 0.3728923035
0.09832474062 0.6006174871 0.3834053483
0.04862331954 0.5688236494 0.3400319272
0.09724663907 0.6509264661 0.4186930375
0.0729349793 0.5865385911 0.3858326612
0.1226364004 0.6183324288 0.4292060823
0.07401308085 0.536229612 0.350544972
0.1206893859 0.6546781167 0.30417372
0.08465635272 0.6350873497 0.3156326448
0.110046114 0.6024933124 0.3261456896
0.1810340788 0.6919838255 0.3385155291
0.170390807 0.6397990211 0.3604874987
0.1450010457 0.6723930584 0.3499744539
0.1693127054 0.6901080002 0.3957751878
0.1947024667 0.6575139628 0.4062882326
0.1332796723 0.6705172332 0.4072341126
0.1586694336 0.6379231958 0.4177471575
0.1089680125 0.6528022914 0.3614333787
0.1343577738 0.6202082541 0.3719464235
0.1027706116 0.6863548159 0.3942427892
0.07845895186 0.6686398742 0.3484420553
0.114491985 0.6882306412 0.3369831305
0.0729349793 0.7381948496 0.4390197781
0.1138266882 0.6713227971 0.4545729383
0.1304067374 0.6917191281 0.4904528392
0.1060950776 0.7789875116 0.5107795798
0.0729349793 0.5998784104 0.4552041509
0.1498597214 0.6909135641 0.4431140135
0.1664397706 0.7113098951 0.4789939144
0.1226751268 0.6610674033 0.5628438535
0.1860099678 0.651281658 0.6051987629
0.1173365358 0.6539596527 0.6088888697
0.1582282448 0.7254040395 0.6082576571
0.1806713768 0.6441739074 0.6512437791
0.1397796679 0.5727295207 0.6518749916
0.08951502847 0.6202747414 0.4910840517
0.1752494827 0.6583195268 0.4536270583
0.04862331954 0.7204799079 0.3932190442
0.02431165977 0.7027649662 0.3474183102
0.04089170894 0.6564950691 0.5479219058
0.02431165977 0.6360987381 0.5120420049
0.04862331954 0.6871467939 0.4755308915
0.08178341787 0.7279394558 0.5472906932
0.0652033687 0.7075431248 0.5114107924
0.04862331954 0.5821634687 0.4094034169
0.02431165977 0.6102702799 0.3619806754
0.02431165977 0.7152536051 0.42810815
0.3188396549 0.48030162 0.5978473864
0.1675613909 0.4986071391 0.6488160973
0.2308962319 0.4888213938 0.6911710067
0.2399025613 0.5621931323 0.6932031189
0.03555311798 0.5243873185 0.718966922
0.03555311798 0.5110708793 0.6101512948
0.07110623595 0.5754075154 0.6555650984
0.1066593539 0.6397441516 0.7009789021
0.07110623595 0.7137239547 0.6393807257
0.03555311798 0.6560455381 0.7108747356
CELLS 0 0
CELL_TYPES 0
POINT_DATA 208
SCALARS GLOBAL_ID int 1
LOOKUP_TABLE default
28 
30 
32 
46 
50 
52 
74 
83 
95 
191 
192 
193 
209 
210 
211 
215 
241 
242 
243 
244 
245 
246 
247 
255 
262 
271 
272 
274 
278 
294 
295 
296 
322 
323 
324 
501 
511 
581 
589 
590 
591 
593 
596 
611 
614 
1218 
1298 
1299 
1300 
1301 
1302 
1303 
1304 
1305 
1427 
1432 
1436 
1456 
1465 
1478 
1498 
1499 
1500 
1504 
1505 
1507 
1511 
1630 
1690 
1691 
1692 
1693 
1694 
1695 
1696 
1697 
1698 
1699 
1700 
1701 
1702 
1703 
1704 
1705 
1706 
1707 
1708 
1709 
1710 
1711 
1712 
1728 
1826 
1837 
1838 
1861 
1862 
1863 
2280 
2281 
2604 
3044 
3087 
3089 
3106 
3116 
3121 
3122 
3123 
3124 
3125 
3126 
3127 
3139 
3142 
3143 
3153 
3154 
3220 
3221 
3222 
3223 
3224 
3226 
3227 
3228 
3232 
3233 
3235 
3236 
3240 
3244 
3245 
3259 
3260 
3261 
3262 
3263 
3264 
3265 
3266 
3267 
3268 
3269 
3279 
3280 
3281 
3296 
3297 
3837 
3839 
3840 
3841 
3842 
3843 
3844 
3845 
3846 
3855 
3856 
3857 
3858 
3859 
3860 
3862 
3863 
3864 
3865 
3866 
3867 
3886 
3888 
3904 
3912 
3915 
3917 
3925 
3930 
3934 
3935 
3938 
3939 
3962 
3963 
3964 
3965 
3967 
3968 
3971 
3972 
3990 
3991 
3992 
3993 
3994 
4005 
4006 
4007 
4384 
4429 
4430 
4504 
4716 
4717 
4718 
4719 
4850 
4866 
SCALARS LOCAL_ID_L1 int 1
LOOKUP_TABLE default
0 
1 
2 
3 
4 
5 
6 
7 
8 
9 
10 
11 
12 
13 
14 
15 
16 
17 
18 
19 
20 
21 
22 
23 
24 
25 
26 
27 
28 
29 
30 
31 
32 
33 
34 
35 
36 
37 
38 
39 
40 
41 
42 
43 
44 
45 
46 
47 
48 
49 
50 
51 
52 
53 
54 
55 
56 
57 
58 
59 
60 
61 
62 
63 
64 
65 
66 
67 
68 
69 
70 
71 
72 
73 
74 
75 
76 
77 
78 
79 
80 
81 
82 
83 
84 
85 
86 
87 
88 
89 
90 
91 
92 
93 
94 
95 
96 
97 
98 
99 
100 
101 
102 
103 
104 
105 
106 
107 
108 
109 
110 
111 
112 
113 
114 
115 
116 
117 
118 
119 
120 
121 
122 
123 
124 
125 
126 
127 
128 
129 
130 
131 
132 
133 
134 
135 
136 
137 
138 
139 
140 
141 
142 
143 
144 
145 
146 
147 
148 
149 
150 
151 
152 
153 
154 
155 
156 
157 
158 
159 
160 
161 
162 
163 
164 
165 
166 
167 
168 
169 
170 
171 
172 
173 
174 
175 
176 
177 
178 
179 
180 
181 
182 
183 
184 
185 
186 
187 
188 
189 
190 
191 
192 
193 
194 
195 
196 
197 
198 
199 
200 
201 
202 
203 
204 
205 
206 
207 
