# vtk DataFile Version 3.0
MOAB 5.1.1
ASCII
DATASET UNSTRUCTURED_GRID
POINTS 839 double
0 0.030601 0
0.488909 0.053552 0
0.386322 0.031694 0
0.294824 0.031694 0
0.283734 0.029508 0
0.267098 0.028415 0
0.262477 0.025137 0
0.251386 0.025137 0
0.248614 0.027322 0
0.213494 0.028415 0
0.136784 0.030601 0
0.106285 0.032787 0
0.085028 0.031694 0
0.082255 0.03388 0
0.075786 0.03388 0
0.07024 0.032787 0
0.05268 0.030601 0
0.033272 0.030601 0
0.310536 0.017486 0
0.322551 0.022951 0
0.344732 0.024044 0
0.362292 0.022951 0
0.371534 0.017486 0
0.413124 0.015301 0
0.459335 0.016393 0
0.483364 0.012022 0
0 0.091257 0
0 0.03926614286 0
0 0.04793128571 0
0 0.05659642857 0
0 0.06526157143 0
0 0.07392671429 0
0 0.08259185714 0
0.4977551429 0.05417642857 0
0.4795829091 0.05156490909 0
0.4702568182 0.04957781818 0
0.4609307273 0.04759072727 0
0.4516046364 0.04560363636 0
0.4422785455 0.04361654545 0
0.4329524545 0.04162945455 0
0.4236263636 0.03964236364 0
0.4143002727 0.03765527273 0
0.4049741818 0.03566818182 0
0.3956480909 0.03368109091 0
0.3771722 0.031694 0
0.3680224 0.031694 0
0.3588726 0.031694 0
0.3497228 0.031694 0
0.340573 0.031694 0
0.3314232 0.031694 0
0.3222734 0.031694 0
0.3131236 0.031694 0
0.3039738 0.031694 0
0.289279 0.030601 0
0.275416 0.0289615 0
0.2569315 0.025137 0
0.239834 0.02759525 0
0.231054 0.0278685 0
0.222274 0.02814175 0
0.20390525 0.02868825 0
0.1943165 0.0289615 0
0.18472775 0.02923475 0
0.175139 0.029508 0
0.16555025 0.02978125 0
0.1559615 0.0300545 0
0.14637275 0.03032775 0
0.12915925 0.0311475 0
0.1215345 0.031694 0
0.11390975 0.0322405 0
0.09919933333 0.03242266667 0
0.09211366667 0.03205833333 0
0.06146 0.031694 0
0.042976 0.030601 0
0.024954 0.030601 0
0.016636 0.030601 0
0.008318 0.030601 0
0.500924 0.0076505 0
0.492144 0.00983625 0
0.4753543333 0.013479 0
0.4673446667 0.014936 0
0.4500928 0.0161746 0
0.4408506 0.0159562 0
0.4316084 0.0157378 0
0.4223662 0.0155194 0
0.404806 0.015738 0
0.396488 0.016175 0
0.38817 0.016612 0
0.379852 0.017049 0
0.366913 0.0202185 0
0.353512 0.0234975 0
0.3373383333 0.02367966667 0
0.3299446667 0.02331533333 0
0.3165435 0.0202185 0
0.3052986667 0.022222 0
0.3000613333 0.026958 0
0 0.09992214286 0
0.4869421368 0.03349559826 0
0.4695288792 0.03074915468 0
0.45480991 0.03106694007 0
0.498170055 0.04049208851 0
0.4963788541 0.02263664143 0
0.4408661048 0.02982243063 0
0.4267094425 0.02738690938 0
0.4780770383 0.02490768737 0
0.4783961319 0.03998527501 0
0.4091401033 0.02548282596 0
0.372574938 0.02496197679 0
0.4882061673 0.04324004754 0
0.4648694072 0.02407313207 0
0.48735749 0.02077270102 0
0.4618170993 0.03685195899 0
0.3933348286 0.02502834942 0
0.496571375 0.03167091164 0
0.4184814801 0.02374854916 0
0.4010225018 0.02285503521 0
0.4473735259 0.03612547736 0
0.4486567904 0.02662613244 0
0.469755068 0.04036178189 0
0.3842080012 0.02354041746 0
0.434486623 0.02364238078 0
0.5024294862 0.04746969552 0
0.3116705001 0.0242701427 0
0.4718349419 0.02105626199 0
0.4329801342 0.03318031048 0
0.4568067034 0.02402116908 0
0.4992426589 0.01583573403 0
0.4775082459 0.03229142801 0
0.3182807452 0.02646152117 0
0.3668257463 0.02577732739 0
0.4194287902 0.03185111226 0
0.4946430612 0.04692673921 0
0.5035935383 0.02391598043 0
0.5048452286 0.03792752999 0
0.4802120372 0.01895337288 0
0.4616537577 0.02970718489 0
0.3072876796 0.02732886284 0
0.4553071798 0.03944774801 0
0.4908294026 0.02676293535 0
0.4922006649 0.03784831886 0
0.4928987766 0.0166822611 0
0.439290153 0.03687484369 0
0.3766490867 0.02121503525 0
0.3789621508 0.02598421868 0
0.4425618355 0.02256877123 0
0.3260357287 0.02743755108 0
0.4846128177 0.02651307767 0
0.4268698294 0.02059969195 0
0.4010613795 0.02925309681 0
0.482023298 0.04546416531 0
0.4132336243 0.03112528447 0
0.3625174057 0.02807932265 0
0.2555529477 0.08140051527 0
0.09610381352 0.09578775968 0
0.4460806535 0.0985929151 0
0.3100416667 0.08728151047 0
0.3889116271 0.09046722008 0
0.2065277873 0.07847146268 0
0.06553776433 0.07210321974 0
0.1406083895 0.07869830612 0
0.2810284838 0.06145396135 0
0.2541533379 0.05397461947 0
0.09202171377 0.06131414641 0
0.2318653288 0.1016234119 0
0.1724093827 0.09737301185 0
0.03347582494 0.08604835822 0
0.2305848873 0.06806438223 0
0.4914481324 0.08408642041 0
0.3409399135 0.06876320366 0
0.4222424611 0.07255216094 0
0.1679633418 0.06237815227 0
0.1258757223 0.1018011929 0
0.1197856349 0.05962083015 0
0.3725973 0.0630571132 0
0.3099272245 0.05952650829 0
0.02836624914 0.05817236971 0
0.4656530369 0.07666319158 0
0.2771957482 0.08402944552 0
0.2113325369 0.05509897041 0
0.2561585265 0.03956422256 0
0.07916589201 0.0519459334 0
0.07182541497 0.09563230807 0
0.1494476126 0.1018043675 0
0.2341805064 0.04664799053 0
0.1123679111 0.08064383552 0
0.2698770546 0.04906681546 0
0.3991821918 0.06138747871 0
0.1430825866 0.05376596659 0
0.2646919352 0.06735402774 0
0.2884344862 0.04602148408 0
0.4670108355 0.09873653103 0
0.05173178373 0.05341577392 0
0.2372704505 0.08450308533 0
0.2946739224 0.07499778722 0
0.2463899145 0.06774524014 0
0.364211701 0.08599158524 0
0.0228996019 0.1040555226 0
0.4451763493 0.07608362432 0
0.08519656211 0.07988522881 0
0.2643872518 0.09612517547 0
0.332860055 0.08959141824 0
0.05125017543 0.09558200921 0
0.4278617411 0.0917542996 0
0.2925636203 0.09603919921 0
0.184595674 0.07833075554 0
0.1881527686 0.05061251227 0
0.2484638147 0.09571918602 0
0.1605467567 0.08124778223 0
0.4995977339 0.09853300244 0
0.2186766063 0.0887012122 0
0.4083741259 0.0878566384 0
0.1057419241 0.05029111096 0
0.3283049648 0.0514756665 0
0.3558409984 0.0514246083 0
0.04574877786 0.07226913082 0
0.0187890869 0.07463277211 0
0.1919294403 0.09632871712 0
0.4810102315 0.07088599265 0
0.3223367547 0.07244370793 0
0.06409295515 0.04609855722 0
0.318332446 0.1024276079 0
0.08808802985 0.04301579535 0
0.1064103268 0.06907178998 0
0.5006923336 0.0711403997 0
0.439385887 0.06199953422 0
0.4835087027 0.09961834417 0
0.2444894532 0.03782209518 0
0.1610476943 0.04697333282 0
0.4159498077 0.05630744882 0
0.0162442583 0.04751181816 0
0.3849692821 0.04983360099 0
0.1294592121 0.04729962236 0
0.4554239918 0.0624856858 0
0.1279065652 0.08840727738 0
0.2939359303 0.05936360193 0
0.07846296183 0.06645213503 0
0.2442184504 0.05595851748 0
0.1262973391 0.07316040263 0
0.1003987679 0.08074648302 0
0.1111061321 0.09587634555 0
0.03879089813 0.04639586828 0
0.3661165647 0.1033385091 0
0.3878227236 0.07027926942 0
0.1510768624 0.06892468051 0
0.1929520799 0.06598173864 0
0.2660398772 0.07824294449 0
0.3485309051 0.0817000941 0
0.2155311118 0.06744710954 0
0.01435919626 0.09100087439 0
0.2253820627 0.05655909086 0
0.2659137646 0.03862904679 0
0.2788087362 0.04062188313 0
0.4748245956 0.08715745245 0
0.4563096349 0.0883589428 0
0.3574066285 0.07015362838 0
0.274756218 0.07217747051 0
0.26339325 0.05698781177 0
0.3028643843 0.04540808974 0
0.2221529762 0.04247955025 0
0.2547678544 0.06265946076 0
0.3686965126 0.04614138348 0
0.01421028216 0.06111773291 0
0.06239074603 0.08624016077 0
0.1167271859 0.04497193643 0
0.2608341493 0.04731417516 0
0.4088359495 0.07371962677 0
0.2064394632 0.09148834606 0
0.2541293414 0.03127674154 0
0.3051580649 0.1009996488 0
0.06680258463 0.05819688246 0
0.03255498569 0.0719931359 0
0.3084828189 0.07347684119 0
0.2272506337 0.08076297522 0
0.0790205 0.04193779745 0
0.4688335732 0.0628745582 0
0.2447798229 0.07788008916 0
0.1334918982 0.06192510542 0
0.2752128033 0.09516522844 0
0.1505009859 0.08897777355 0
0.3414084274 0.04723401219 0
0.2796231968 0.05144518237 0
0.08420362799 0.09275101133 0
0.2495962037 0.04611891864 0
0.1750019634 0.04335936804 0
0.2014102953 0.04217348703 0
0.2202665894 0.1008067673 0
0.06201672264 0.1025803437 0
0.4565721858 0.1026981516 0
0.1414703236 0.04219245908 0
0.1604357186 0.09495488669 0
0.1373702731 0.09703116601 0
0.3166106882 0.04477797888 0
0.4394892443 0.08874108314 0
0.2570691855 0.07252627497 0
0.2852870606 0.07063727985 0
0.5034128321 0.08287090071 0
0.2882582185 0.08510655526 0
0.3986138357 0.04779348987 0
0.1726811802 0.08404483779 0
0.04134850516 0.06057139435 0
0.04589262367 0.08414688195 0
0.271627797 0.06107747427 0
0.290124111 0.03954477862 0
0.05686388405 0.06480322458 0
0.07458822499 0.08520948914 0
0.09266625913 0.07233254692 0
0.2386492901 0.09441140405 0
0.05391239274 0.04219117381 0
0.2565844758 0.09081181336 0
0.3725036758 0.07583142069 0
0.4352021091 0.09954488527 0
0.3974875837 0.07981342814 0
0.02999354788 0.09807711971 0
0.2561982262 0.1015833005 0
0.2146516989 0.07791360463 0
0.2618512614 0.03420947853 0
0.1951306264 0.08406612999 0
0.2469269106 0.08750044197 0
0.3759612864 0.0931226738 0
0.09913709739 0.04245919188 0
0.2332219925 0.05847397198 0
0.02716698134 0.04231047893 0
0.2284508666 0.09140209494 0
0.2362760083 0.0752206748 0
0.1820764496 0.06687040158 0
0.08749195178 0.03767140201 0
0.09502241249 0.05197061919 0
0.4171085658 0.09534641393 0
0.302330708 0.08602719853 0
0.425233367 0.1028548722 0
0.2676989319 0.08828764412 0
0.3554039599 0.0937021912 0
0.419762107 0.08213194964 0
0.4326181724 0.07866194947 0
0.1827012037 0.09001329402 0
0.0708111698 0.04102693549 0
0.2331762597 0.03817147016 0
0.4066069622 0.09945583262 0
0.05031370789 0.103643364 0
0.3211383412 0.08371484071 0
0.01067039171 0.09981852225 0
0.1190004168 0.06844774985 0
0.491579599 0.0645108505 0
0.33329191 0.07702633813 0
0.102590479 0.05947288388 0
0.0407623681 0.09446058364 0
0.3187522428 0.05958224789 0
0.4534895401 0.07988196048 0
0.05552350231 0.07685125946 0
0.160809803 0.05752749032 0
0.2049353763 0.06476204412 0
0.341064844 0.09332968854 0
0.3871707835 0.06151077196 0
0.249427903 0.05982349306 0
0.07670961692 0.1026972627 0
0.4274217394 0.0520049057 0
0.2102240459 0.04004906188 0
0.4908278272 0.09780144882 0
0.1999799238 0.05166677076 0
0.1402898446 0.06663120603 0
0.3307752789 0.06273798671 0
0.4455755185 0.05373254583 0
0.2377287004 0.06511180336 0
0.2861419752 0.0976807918 0
0.2852245908 0.05644386162 0
0.1042957758 0.09122395669 0
0.1688859354 0.07368559398 0
[...]
POINT_DATA 839
SCALARS GLOBAL_ID int 1
LOOKUP_TABLE default
0 
75 
76 
77 
78 
79 
80 
81 
82 
83 
84 
85 
86 
87 
88 
89 
90 
91 
92 
93 
94 
95 
96 
97 
98 
99 
120 
121 
122 
123 
124 
125 
126 
294 
295 
296 
297 
298 
299 
300 
301 
302 
303 
304 
305 
306 
307 
308 
309 
310 
311 
312 
313 
314 
315 
316 
317 
318 
319 
320 
321 
322 
323 
324 
325 
326 
327 
328 
329 
330 
331 
332 
333 
334 
335 
336 
386 
387 
388 
389 
390 
391 
392 
393 
394 
395 
396 
397 
398 
399 
400 
401 
402 
403 
404 
432 
481 
497 
511 
527 
531 
535 
553 
556 
563 
571 
596 
605 
610 
613 
625 
631 
650 
661 
664 
668 
675 
681 
690 
698 
700 
702 
710 
712 
718 
720 
731 
733 
734 
735 
745 
747 
761 
774 
779 
788 
789 
804 
811 
814 
815 
821 
844 
850 
852 
874 
876 
879 
892 
893 
897 
899 
900 
901 
904 
905 
906 
907 
908 
910 
913 
916 
917 
918 
924 
925 
926 
927 
929 
930 
934 
935 
938 
940 
941 
943 
944 
953 
954 
956 
957 
959 
962 
963 
964 
968 
969 
972 
974 
977 
979 
981 
983 
984 
985 
986 
987 
989 
990 
994 
998 
1000 
1001 
1004 
1009 
1010 
1011 
1014 
1017 
1021 
1022 
1024 
1025 
1027 
1028 
1029 
1042 
1044 
1049 
1050 
1052 
1055 
1056 
1057 
1059 
1062 
1064 
1065 
1068 
1069 
1072 
1073 
1076 
1079 
1080 
1081 
1082 
1088 
1095 
1097 
1099 
1101 
1104 
1105 
1106 
1108 
1110 
1111 
1112 
1114 
1115 
1117 
1119 
1125 
1127 
1130 
1135 
1136 
1143 
1147 
1157 
1159 
1160 
1161 
1164 
1165 
1167 
1169 
1170 
1171 
1176 
1177 
1179 
1181 
1182 
1185 
1186 
1188 
1189 
1190 
1191 
1193 
1194 
1196 
1198 
1200 
1212 
1213 
1214 
1217 
1219 
1220 
1221 
1222 
1225 
1226 
1229 
1230 
1231 
1240 
1241 
1246 
1249 
1251 
1254 
1258 
1262 
1263 
1264 
1266 
1267 
1271 
1274 
1275 
1278 
1281 
1282 
1283 
1284 
1290 
1293 
1294 
1295 
1296 
1297 
1303 
1304 
1308 
1309 
1313 
1315 
1318 
1321 
1322 
1325 
1327 
1331 
1332 
1333 
1335 
1336 
1338 
1340 
1344 
1345 
1349 
1351 
1353 
1354 
1355 
1356 
1357 
1363 
1364 
1368 
1371 
1374 
1377 
1378 
1381 
1385 
1386 
1387 
1388 
1392 
1394 
1395 
1398 
1409 
1412 
1413 
1415 
1417 
1419 
1422 
1424 
1425 
1427 
1431 
1434 
1436 
1438 
1440 
1443 
1446 
1450 
1452 
1453 
1455 
1456 
1461 
1462 
1465 
1468 
1473 
1474 
1479 
1480 
1485 
1486 
1490 
1497 
1501 
1504 
1509 
1514 
1515 
1517 
1518 
1520 
1523 
1524 
1527 
1532 
1533 
1535 
1536 
1538 
1543 
1545 
1549 
1552 
1556 
1563 
1564 
1567 
1570 
1571 
1572 
1573 
1579 
1580 
1581 
1582 
1589 
1592 
1595 
1598 
1599 
1601 
1602 
1604 
1607 
1609 
1610 
1620 
1627 
1630 
1631 
1633 
1634 
1636 
1637 
1638 
1639 
1644 
1645 
1648 
1649 
1650 
1651 
1659 
1660 
1661 
1663 
1664 
1666 
1667 
1670 
1673 
1678 
1680 
1681 
1682 
1684 
1686 
1687 
1688 
1690 
1692 
1695 
1697 
1699 
1700 
1701 
1702 
1705 
1707 
1708 
1710 
1712 
1713 
1721 
1724 
1726 
1728 
1732 
1733 
1734 
1735 
1737 
1740 
1741 
1742 
1747 
1748 
1751 
1753 
1754 
1755 
1764 
1765 
1767 
1768 
1771 
1777 
1781 
1783 
1784 
1789 
1792 
1793 
1794 
1796 
1797 
1798 
1800 
1802 
1805 
1809 
1810 
1813 
1815 
1817 
1819 
1821 
1825 
1826 
1831 
1835 
1837 
1838 
1842 
1845 
1846 
1849 
1852 
1853 
1862 
1863 
1868 
1870 
1871 
1873 
1874 
1877 
1880 
1885 
1889 
1891 
1895 
1897 
1899 
1900 
1901 
1905 
1911 
1912 
1914 
1917 
1921 
1922 
1925 
1930 
1933 
1934 
1938 
1939 
1941 
1943 
1946 
1949 
1952 
1953 
1959 
1963 
1964 
1966 
1967 
1974 
1975 
1977 
1979 
1980 
1981 
1982 
1983 
1984 
1993 
1994 
1996 
1997 
1998 
2007 
2010 
2012 
2014 
2015 
2016 
2020 
2021 
2022 
2030 
2031 
2034 
2036 
2038 
2039 
2044 
2045 
2048 
2051 
2058 
2063 
2070 
2071 
2075 
2076 
2077 
2078 
2085 
2086 
2088 
2089 
2090 
2091 
2094 
2095 
2099 
2101 
2102 
2103 
2106 
2112 
2115 
2117 
2118 
2120 
2123 
2124 
2127 
2129 
2134 
2142 
2144 
2146 
2148 
2152 
2153 
2154 
2155 
2157 
2158 
2159 
2161 
2163 
2164 
2166 
2168 
2169 
2170 
2173 
2174 
2175 
2177 
2181 
2182 
2188 
2190 
2192 
2195 
2198 
2201 
2204 
2207 
2209 
2213 
2216 
2217 
2218 
2219 
2220 
2221 
2223 
2225 
2226 
2227 
2228 
2232 
2233 
2236 
2237 
2238 
2241 
2245 
2249 
2268 
2271 
2278 
2279 
2280 
2282 
2286 
2287 
2288 
2292 
2299 
2300 
2310 
2311 
2312 
2313 
2314 
2316 
2319 
2320 
2323 
2325 
2326 
2331 
2332 
2336 
2340 
2341 
2343 
2347 
2351 
2352 
2355 
2356 
2357 
2361 
2363 
2364 
2368 
2372 
2374 
2377 
2378 
2381 
2382 
2388 
2389 
2394 
2396 
2399 
2400 
2402 
2403 
2405 
2406 
2407 
2408 
2410 
2411 
2412 
2417 
2419 
2423 
2424 
2428 
2429 
2430 
2433 
2434 
2442 
2445 
2447 
2448 
2451 
2452 
2454 
2455 
2457 
2461 
2462 
2463 
2466 
2468 
2469 
2471 
2478 
2479 
2480 
2485 
2487 
2489 
2491 
2492 
2494 
2497 
2499 
2505 
2506 
2509 
2514 
2517 
2519 
2524 
2526 
2529 
2531 
2533 
2535 
2540 
2546 
2547 
2549 
2551 
2558 
2559 
2562 
2563 
2565 
2568 
2573 
2575 
2580 
2583 
2588 
2590 
2591 
2592 
2593 
2594 
2600 
2601 
2602 
2603 
SCALARS LOCAL_ID_L1-0 int 1
LOOKUP_TABLE default
0 
1 
2 
3 
4 
5 
6 
7 
8 
9 
10 
11 
12 
13 
14 
15 
16 
17 
18 
19 
20 
21 
22 
23 
24 
25 
26 
27 
28 
29 
30 
31 
32 
33 
34 
35 
36 
37 
38 
39 
40 
41 
42 
43 
44 
45 
46 
47 
48 
49 
50 
51 
52 
53 
54 
55 
56 
57 
58 
59 
60 
61 
62 
63 
64 
65 
66 
67 
68 
69 
70 
71 
72 
73 
74 
75 
76 
77 
78 
79 
80 
81 
82 
83 
84 
85 
86 
87 
88 
89 
90 
91 
92 
93 
94 
95 
96 
97 
98 
99 
100 
101 
102 
103 
104 
105 
106 
107 
108 
109 
110 
111 
112 
113 
114 
115 
116 
117 
118 
119 
120 
121 
122 
123 
124 
125 
126 
127 
128 
129 
130 
131 
132 
133 
134 
135 
136 
137 
138 
139 
140 
141 
142 
143 
144 
145 
146 
147 
148 
149 
150 
151 
152 
153 
154 
155 
156 
157 
158 
159 
160 
161 
162 
163 
164 
165 
166 
167 
168 
169 
170 
171 
172 
173 
174 
175 
176 
177 
178 
179 
180 
181 
182 
183 
184 
185 
186 
187 
188 
189 
190 
191 
192 
193 
194 
195 
196 
197 
198 
199 
200 
201 
202 
203 
204 
205 
206 
207 
208 
209 
210 
211 
212 
213 
214 
215 
216 
217 
218 
219 
220 
221 
222 
223 
224 
225 
226 
227 
228 
229 
230 
231 
232 
233 
234 
235 
236 
237 
238 
239 
240 
241 
242 
243 
244 
245 
246 
247 
248 
249 
250 
251 
252 
253 
254 
255 
256 
257 
258 
259 
260 
261 
262 
263 
264 
265 
266 
267 
268 
269 
270 
271 
272 
273 
274 
275 
276 
277 
278 
279 
280 
281 
282 
283 
284 
285 
286 
287 
288 
289 
290 
291 
292 
293 
294 
295 
296 
297 
298 
299 
300 
301 
302 
303 
304 
305 
306 
307 
308 
309 
310 
311 
312 
313 
314 
315 
316 
317 
318 
319 
320 
321 
322 
323 
324 
325 
326 
327 
328 
329 
330 
331 
332 
333 
334 
335 
336 
337 
338 
339 
340 
341 
342 
343 
344 
345 
346 
347 
348 
349 
350 
351 
352 
353 
354 
355 
356 
357 
358 
359 
360 
361 
362 
363 
364 
365 
366 
367 
368 
369 
370 
371 
372 
373 
374 
375 
376 
377 
378 
379 
380 
381 
382 
383 
384 
385 
386 
387 
388 
389 
390 
391 
392 
393 
394 
395 
396 
397 
398 
399 
400 
401 
402 
403 
404 
405 
406 
407 
408 
409 
410 
411 
412 
413 
414 
415 
416 
417 
418 
419 
420 
421 
422 
423 
424 
425 
426 
427 
428 
429 
430 
431 
432 
433 
434 
435 
436 
437 
438 
439 
440 
441 
442 
443 
444 
445 
446 
447 
448 
449 
450 
451 
452 
453 
454 
455 
456 
457 
458 
459 
460 
461 
462 
463 
464 
465 
466 
467 
468 
469 
470 
471 
472 
473 
474 
475 
476 
477 
478 
479 
480 
481 
482 
483 
484 
485 
486 
487 
488 
489 
490 
491 
492 
493 
494 
495 
496 
497 
498 
499 
500 
501 
502 
503 
504 
505 
506 
507 
508 
509 
510 
511 
512 
513 
514 
515 
516 
517 
518 
519 
520 
521 
522 
523 
524 
525 
526 
527 
528 
529 
530 
531 
532 
533 
534 
535 
536 
537 
538 
539 
540 
541 
542 
543 
544 
545 
546 
547 
548 
549 
550 
551 
552 
553 
554 
555 
556 
557 
558 
559 
560 
561 
562 
563 
564 
565 
566 
567 
568 
569 
570 
571 
572 
573 
574 
575 
576 
577 
578 
579 
580 
581 
582 
583 
584 
585 
586 
587 
588 
589 
590 
591 
592 
593 
594 
595 
596 
597 
598 
599 
600 
601 
602 
603 
604 
605 
606 
607 
608 
609 
610 
611 
612 
613 
614 
615 
616 
617 
618 
619 
620 
621 
622 
623 
624 
625 
626 
627 
628 
629 
630 
631 
632 
633 
634 
635 
636 
637 
638 
639 
640 
641 
642 
643 
644 
645 
646 
647 
648 
649 
650 
651 
652 
653 
654 
655 
656 
657 
658 
659 
660 
661 
662 
663 
664 
665 
666 
667 
668 
669 
670 
671 
672 
673 
674 
675 
676 
677 
678 
679 
680 
681 
682 
683 
684 
685 
686 
687 
688 
689 
690 
691 
692 
693 
694 
695 
696 
697 
698 
699 
700 
701 
702 
703 
704 
705 
706 
707 
708 
709 
710 
711 
712 
713 
714 
715 
716 
717 
718 
719 
720 
721 
722 
723 
724 
725 
726 
727 
728 
729 
730 
731 
732 
733 
734 
735 
736 
737 
738 
739 
740 
741 
742 
743 
744 
745 
746 
747 
748 
749 
750 
751 
752 
753 
754 
755 
756 
757 
758 
759 
760 
761 
762 
763 
764 
765 
766 
767 
768 
769 
770 
771 
772 
773 
774 
775 
776 
777 
778 
779 
780 
781 
782 
783 
784 
785 
786 
787 
788 
789 
790 
791 
792 
793 
794 
795 
796 
797 
798 
799 
800 
801 
802 
803 
804 
805 
806 
807 
808 
809 
810 
811 
812 
813 
814 
815 
816 
817 
818 
819 
820 
821 
822 
823 
824 
825 
826 
827 
828 
829 
830 
831 
832 
833 
834 
835 
836 
837 
838 
SCALARS LOCAL_ID_L1-1 int 1
LOOKUP_TABLE default
0 
0 
0 
0 
0 
0 
0 
0 
0 
0 
0 
0 
0 
0 
0 
0 
0 
0 
0 
0 
0 
0 
0 
0 
0 
0 
0 
0 
0 
0 
0 
0 
0 
0 
0 
0 
0 
0 
0 
0 
0 
0 
0 
0 
0 
0 
0 
0 
0 
0 
0 
0 
0 
0 
0 
0 
0 
0 
0 
0 
0 
0 
0 
0 
0 
0 
0 
0 
0 
0 
0 
0 
0 
0 
0 
0 
0 
0 
0 
0 
0 
0 
0 
0 
0 
0 
0 
0 
0 
0 
0 
0 
0 
0 
0 
128 
0 
0 
0 
0 
0 
0 
0 
0 
0 
0 
0 
0 
0 
0 
0 
0 
0 
0 
0 
0 
0 
0 
0 
0 
0 
0 
0 
0 
0 
0 
0 
0 
0 
0 
0 
0 
0 
0 
0 
0 
0 
0 
0 
0 
0 
0 
0 
0 
0 
0 
0 
0 
0 
0 
0 
0 
134 
135 
0 
0 
0 
0 
0 
0 
0 
0 
141 
142 
0 
0 
0 
0 
0 
0 
149 
0 
0 
0 
0 
0 
0 
0 
0 
0 
157 
159 
0 
0 
0 
0 
0 
0 
0 
164 
0 
0 
0 
0 
0 
167 
0 
0 
169 
0 
171 
0 
173 
0 
0 
0 
0 
180 
0 
0 
0 
0 
0 
0 
0 
188 
0 
0 
0 
196 
0 
0 
0 
0 
200 
0 
0 
0 
0 
0 
0 
0 
0 
0 
0 
0 
0 
0 
0 
0 
212 
0 
0 
0 
0 
0 
0 
0 
0 
0 
0 
0 
0 
0 
0 
0 
0 
0 
0 
0 
0 
0 
0 
0 
0 
0 
0 
238 
0 
0 
0 
0 
0 
0 
0 
0 
0 
0 
0 
0 
0 
0 
0 
0 
247 
248 
257 
0 
0 
260 
0 
0 
0 
0 
0 
0 
0 
0 
0 
0 
0 
0 
0 
0 
0 
0 
0 
0 
0 
276 
0 
278 
281 
0 
0 
0 
0 
0 
0 
0 
0 
0 
0 
0 
0 
0 
0 
0 
294 
0 
0 
0 
0 
0 
0 
0 
304 
305 
0 
306 
0 
0 
0 
0 
0 
0 
0 
0 
0 
0 
0 
0 
0 
314 
0 
0 
321 
0 
0 
0 
0 
0 
325 
0 
0 
0 
0 
0 
0 
0 
0 
0 
0 
0 
0 
0 
0 
0 
0 
0 
0 
0 
0 
0 
0 
0 
0 
0 
352 
0 
0 
0 
0 
0 
0 
0 
0 
0 
0 
0 
0 
0 
0 
0 
0 
0 
0 
0 
0 
0 
378 
0 
0 
0 
0 
0 
0 
382 
0 
0 
0 
0 
0 
393 
0 
395 
0 
0 
0 
0 
0 
0 
0 
0 
0 
0 
0 
404 
0 
0 
0 
0 
0 
410 
0 
0 
0 
419 
0 
0 
0 
0 
0 
0 
0 
0 
0 
0 
0 
0 
0 
0 
0 
0 
0 
0 
0 
0 
0 
0 
0 
0 
0 
437 
0 
0 
0 
0 
0 
439 
0 
0 
0 
0 
0 
0 
443 
444 
0 
0 
0 
0 
0 
0 
0 
0 
0 
0 
0 
0 
0 
0 
458 
459 
0 
0 
0 
0 
0 
0 
0 
0 
0 
0 
0 
0 
0 
0 
0 
0 
0 
476 
0 
0 
0 
0 
477 
0 
480 
0 
0 
0 
0 
0 
0 
0 
489 
490 
0 
0 
0 
0 
0 
0 
0 
0 
0 
0 
0 
505 
0 
0 
511 
0 
0 
513 
0 
0 
0 
0 
0 
0 
0 
0 
522 
0 
0 
0 
0 
0 
0 
0 
0 
0 
0 
0 
0 
0 
0 
0 
0 
0 
0 
0 
0 
0 
0 
0 
544 
0 
0 
0 
0 
0 
0 
0 
0 
550 
0 
0 
0 
0 
0 
0 
563 
0 
0 
0 
0 
0 
0 
0 
0 
0 
0 
0 
0 
574 
576 
0 
0 
0 
581 
0 
0 
0 
0 
0 
591 
0 
0 
594 
0 
0 
0 
0 
0 
0 
0 
0 
0 
0 
599 
602 
0 
0 
0 
0 
0 
0 
0 
0 
0 
0 
0 
0 
616 
0 
0 
0 
619 
0 
0 
620 
0 
622 
0 
0 
0 
0 
0 
0 
0 
0 
0 
0 
630 
0 
0 
0 
0 
0 
638 
0 
0 
0 
0 
0 
0 
0 
0 
0 
644 
0 
0 
647 
0 
0 
0 
651 
0 
0 
0 
0 
0 
0 
0 
0 
0 
0 
0 
0 
0 
675 
0 
0 
0 
0 
685 
0 
686 
0 
0 
0 
0 
0 
0 
0 
0 
0 
692 
0 
0 
0 
0 
0 
0 
0 
0 
0 
0 
0 
0 
0 
708 
0 
0 
0 
711 
0 
0 
0 
0 
723 
0 
726 
0 
0 
0 
0 
727 
0 
0 
0 
0 
728 
0 
0 
0 
0 
0 
0 
0 
0 
0 
0 
0 
0 
0 
0 
0 
0 
0 
0 
0 
0 
0 
0 
0 
0 
0 
0 
0 
755 
0 
0 
0 
0 
0 
0 
0 
0 
0 
0 
0 
0 
0 
0 
0 
0 
0 
771 
0 
0 
0 
0 
0 
0 
0 
0 
0 
0 
0 
0 
0 
0 
0 
0 
0 
0 
0 
0 
0 
0 
0 
799 
0 
0 
0 
SCALARS LOCAL_ID_L1-2 int 1
LOOKUP_TABLE default
0 
0 
0 
0 
0 
0 
0 
0 
0 
0 
0 
0 
0 
0 
0 
0 
0 
0 
0 
0 
0 
0 
0 
0 
0 
0 
0 
0 
0 
0 
0 
0 
0 
89 
0 
0 
0 
0 
0 
0 
0 
0 
0 
0 
0 
0 
0 
0 
0 
0 
0 
0 
0 
0 
0 
0 
0 
0 
0 
0 
0 
0 
0 
0 
0 
0 
0 
0 
0 
0 
0 
0 
0 
0 
0 
0 
139 
0 
0 
0 
0 
0 
0 
0 
0 
0 
0 
0 
0 
0 
0 
0 
0 
0 
0 
0 
0 
0 
0 
251 
0 
0 
0 
0 
0 
0 
0 
0 
0 
0 
0 
0 
362 
0 
0 
0 
0 
0 
0 
0 
405 
0 
0 
0 
0 
421 
0 
0 
0 
0 
0 
443 
457 
0 
0 
0 
0 
0 
0 
0 
0 
0 
0 
0 
0 
0 
0 
0 
0 
0 
0 
0 
0 
0 
0 
0 
0 
0 
0 
0 
0 
0 
0 
0 
0 
0 
0 
0 
0 
0 
0 
0 
0 
0 
0 
0 
0 
0 
0 
0 
0 
0 
0 
0 
0 
0 
0 
0 
0 
0 
0 
0 
0 
0 
0 
0 
0 
0 
0 
0 
0 
0 
0 
0 
0 
0 
0 
596 
0 
0 
0 
0 
0 
0 
0 
0 
0 
0 
0 
0 
0 
0 
602 
0 
0 
0 
0 
0 
0 
0 
0 
0 
0 
0 
0 
0 
0 
0 
0 
0 
0 
0 
0 
0 
0 
0 
0 
0 
0 
0 
0 
0 
0 
0 
0 
0 
0 
0 
0 
0 
0 
0 
0 
0 
0 
0 
0 
0 
0 
0 
0 
0 
0 
0 
0 
0 
0 
0 
0 
0 
0 
0 
0 
0 
0 
0 
0 
0 
0 
0 
0 
0 
0 
0 
633 
0 
0 
0 
0 
0 
0 
0 
0 
0 
0 
0 
0 
0 
0 
0 
0 
0 
0 
0 
0 
0 
0 
0 
0 
0 
0 
0 
0 
0 
0 
0 
0 
0 
0 
0 
0 
0 
0 
0 
0 
0 
0 
0 
0 
0 
0 
0 
0 
0 
0 
0 
0 
0 
0 
0 
0 
0 
0 
0 
0 
0 
0 
0 
0 
0 
0 
0 
0 
0 
0 
0 
0 
0 
0 
0 
0 
0 
0 
0 
0 
0 
0 
0 
0 
0 
0 
0 
0 
0 
0 
0 
0 
0 
0 
0 
0 
0 
0 
0 
0 
0 
0 
0 
675 
0 
0 
0 
0 
0 
0 
0 
0 
0 
0 
0 
0 
0 
0 
0 
0 
0 
0 
0 
0 
0 
0 
0 
0 
0 
0 
0 
0 
0 
0 
0 
0 
0 
0 
0 
0 
0 
0 
0 
0 
0 
0 
0 
0 
0 
0 
0 
0 
0 
0 
0 
0 
0 
0 
0 
0 
0 
0 
0 
0 
0 
0 
0 
0 
0 
0 
0 
0 
0 
0 
0 
0 
721 
0 
0 
0 
0 
0 
0 
0 
0 
0 
0 
0 
0 
0 
0 
0 
0 
0 
0 
0 
0 
0 
0 
0 
0 
0 
0 
0 
0 
0 
0 
0 
0 
0 
0 
0 
0 
0 
0 
0 
0 
0 
0 
0 
0 
0 
0 
0 
0 
0 
0 
0 
0 
0 
0 
0 
0 
0 
0 
0 
0 
0 
0 
0 
0 
0 
0 
0 
0 
0 
0 
0 
0 
0 
0 
0 
0 
0 
0 
0 
0 
0 
0 
0 
0 
0 
0 
0 
0 
0 
0 
0 
0 
0 
0 
0 
0 
0 
0 
0 
0 
0 
0 
0 
0 
0 
767 
0 
0 
0 
0 
0 
0 
0 
0 
0 
0 
0 
0 
0 
0 
0 
0 
0 
0 
0 
0 
0 
0 
0 
0 
0 
0 
0 
0 
0 
0 
0 
0 
0 
0 
0 
0 
0 
0 
0 
0 
0 
0 
0 
0 
0 
0 
0 
0 
0 
0 
0 
0 
0 
0 
0 
0 
0 
0 
0 
0 
0 
0 
0 
0 
0 
0 
0 
0 
0 
0 
0 
0 
0 
0 
0 
0 
0 
0 
0 
0 
0 
0 
0 
0 
0 
0 
0 
0 
0 
0 
0 
0 
0 
0 
0 
0 
0 
0 
0 
0 
0 
0 
0 
0 
0 
0 
0 
0 
0 
0 
0 
0 
0 
0 
0 
0 
0 
0 
0 
0 
0 
0 
0 
0 
0 
0 
0 
0 
0 
0 
0 
0 
0 
0 
0 
0 
0 
0 
0 
0 
0 
0 
0 
0 
0 
0 
0 
0 
0 
0 
0 
0 
0 
0 
0 
0 
0 
0 
0 
0 
0 
0 
0 
0 
0 
0 
0 
0 
0 
0 
0 
0 
0 
0 
0 
0 
846 
0 
0 
0 
0 
0 
0 
0 
0 
0 
0 
0 
0 
0 
0 
0 
0 
0 
0 
0 
0 
0 
0 
0 
0 
0 
0 
0 
0 
0 
0 
0 
0 
0 
0 
0 
0 
0 
0 
0 
0 
0 
0 
0 
0 
0 
0 
0 
0 
0 
0 
0 
0 
0 
0 
0 
0 
0 
0 
0 
0 
0 
0 
0 
0 
0 
0 
0 
0 
0 
0 
0 
0 
0 
0 
0 
0 
0 
0 
0 
0 
0 
0 
0 
0 
SCALARS LOCAL_ID_L1-3 int 1
LOOKUP_TABLE default
0 
0 
0 
0 
0 
0 
0 
0 
0 
0 
0 
0 
0 
0 
0 
0 
0 
0 
0 
0 
0 
0 
0 
0 
0 
0 
0 
0 
0 
0 
0 
0 
0 
0 
0 
0 
0 
0 
0 
0 
0 
0 
0 
0 
0 
0 
0 
0 
0 
0 
0 
0 
0 
0 
0 
0 
0 
0 
0 
0 
0 
0 
0 
0 
0 
0 
0 
0 
0 
0 
0 
0 
0 
0 
0 
0 
0 
0 
0 
0 
0 
0 
0 
0 
0 
0 
0 
0 
0 
0 
0 
0 
0 
0 
0 
0 
0 
0 
0 
0 
0 
0 
0 
0 
0 
0 
0 
0 
0 
0 
0 
0 
0 
0 
0 
0 
0 
0 
0 
0 
0 
0 
0 
0 
0 
0 
0 
0 
0 
0 
0 
0 
0 
0 
0 
0 
0 
0 
0 
0 
0 
0 
0 
0 
0 
0 
0 
0 
0 
0 
0 
0 
0 
0 
0 
0 
0 
0 
0 
0 
0 
0 
0 
0 
0 
0 
0 
0 
0 
0 
0 
0 
0 
0 
0 
0 
0 
0 
0 
0 
0 
0 
0 
0 
0 
0 
0 
0 
0 
0 
0 
0 
0 
0 
0 
0 
0 
0 
0 
0 
0 
0 
0 
0 
0 
0 
0 
64 
0 
0 
0 
0 
0 
0 
0 
0 
0 
0 
0 
0 
0 
0 
0 
0 
0 
0 
0 
0 
0 
0 
0 
0 
0 
0 
0 
0 
0 
0 
0 
0 
0 
0 
0 
0 
0 
0 
0 
0 
0 
0 
0 
0 
0 
0 
0 
0 
0 
0 
0 
0 
0 
0 
0 
0 
0 
0 
0 
0 
0 
0 
0 
0 
0 
0 
0 
0 
0 
0 
0 
0 
0 
0 
0 
0 
0 
0 
0 
0 
0 
0 
0 
0 
0 
0 
0 
0 
0 
0 
0 
0 
0 
0 
0 
0 
0 
0 
0 
0 
0 
0 
0 
0 
0 
0 
0 
0 
0 
0 
0 
0 
0 
0 
0 
0 
0 
0 
0 
0 
0 
0 
0 
0 
0 
0 
0 
0 
0 
0 
0 
0 
0 
0 
0 
0 
0 
0 
0 
0 
0 
0 
0 
0 
0 
0 
0 
0 
0 
0 
0 
0 
0 
0 
0 
0 
0 
0 
0 
0 
0 
0 
0 
0 
0 
0 
0 
0 
0 
0 
0 
0 
0 
0 
0 
0 
0 
0 
0 
0 
0 
0 
0 
0 
0 
0 
0 
0 
0 
0 
0 
0 
0 
0 
0 
0 
0 
0 
0 
0 
0 
0 
0 
0 
0 
0 
0 
0 
0 
0 
0 
0 
0 
0 
0 
0 
0 
0 
0 
0 
0 
0 
0 
0 
0 
0 
0 
0 
0 
0 
0 
0 
0 
0 
0 
0 
0 
0 
0 
0 
0 
0 
0 
0 
0 
0 
0 
0 
0 
0 
0 
0 
0 
0 
0 
0 
0 
0 
0 
0 
0 
0 
0 
0 
0 
0 
0 
0 
0 
0 
0 
0 
0 
0 
0 
0 
0 
0 
0 
0 
0 
0 
0 
0 
0 
0 
0 
0 
0 
0 
0 
0 
0 
0 
0 
0 
0 
0 
0 
0 
0 
0 
0 
0 
0 
0 
0 
0 
0 
0 
0 
0 
0 
0 
0 
0 
0 
0 
0 
0 
0 
0 
0 
0 
0 
0 
0 
0 
0 
0 
0 
0 
0 
0 
0 
0 
0 
0 
0 
0 
0 
0 
0 
0 
0 
0 
0 
0 
0 
0 
0 
0 
0 
0 
0 
0 
0 
0 
0 
0 
0 
0 
0 
0 
0 
0 
0 
0 
0 
0 
0 
0 
0 
0 
0 
0 
0 
0 
0 
0 
0 
0 
0 
0 
0 
0 
0 
0 
0 
0 
0 
0 
0 
0 
0 
0 
0 
0 
0 
0 
0 
0 
0 
0 
0 
0 
0 
0 
0 
0 
0 
0 
0 
0 
0 
0 
0 
0 
0 
0 
0 
0 
0 
0 
0 
0 
0 
0 
0 
0 
0 
0 
0 
0 
0 
0 
0 
0 
0 
0 
0 
0 
0 
0 
0 
0 
0 
0 
0 
0 
0 
0 
0 
0 
0 
0 
0 
0 
0 
0 
0 
0 
0 
0 
0 
0 
0 
0 
0 
0 
0 
0 
0 
0 
0 
0 
0 
0 
0 
0 
0 
0 
0 
0 
0 
0 
0 
0 
0 
0 
0 
0 
0 
0 
0 
0 
0 
0 
0 
0 
0 
0 
0 
0 
0 
0 
0 
0 
0 
0 
0 
0 
0 
0 
0 
0 
0 
0 
0 
0 
0 
0 
0 
0 
0 
0 
0 
0 
0 
0 
0 
0 
0 
0 
0 
0 
0 
0 
0 
0 
0 
0 
0 
0 
0 
0 
0 
0 
0 
0 
0 
0 
0 
0 
0 
0 
0 
0 
0 
0 
0 
0 
0 
0 
0 
0 
0 
0 
0 
0 
0 
0 
0 
0 
0 
0 
0 
0 
0 
0 
0 
0 
0 
0 
0 
0 
0 
0 
0 
0 
0 
0 
0 
0 
0 
0 
0 
0 
0 
0 
0 
0 
0 
0 
0 
0 
0 
0 
0 
0 
0 
0 
0 
0 
0 
0 
0 
0 
0 
0 
0 
0 
0 
0 
0 
0 
0 
0 
0 
0 
0 
CELL_DATA 1502
SCALARS GLOBAL_ID int 1
LOOKUP_TABLE default
116 
118 
129 
138 
144 
156 
172 
197 
209 
218 
235 
237 
256 
275 
279 
286 
327 
334 
352 
361 
363 
370 
375 
401 
411 
418 
421 
424 
425 
437 
451 
452 
453 
461 
462 
464 
465 
470 
471 
478 
494 
511 
514 
519 
530 
531 
547 
548 
549 
550 
556 
558 
564 
587 
589 
602 
603 
605 
607 
614 
615 
617 
621 
631 
636 
648 
654 
660 
671 
672 
675 
696 
698 
705 
709 
710 
715 
722 
726 
731 
734 
736 
737 
743 
744 
753 
757 
761 
770 
786 
789 
791 
792 
794 
796 
801 
810 
812 
813 
814 
829 
834 
835 
839 
842 
844 
849 
852 
856 
859 
862 
866 
884 
899 
900 
908 
919 
932 
942 
944 
949 
954 
955 
957 
965 
968 
977 
978 
983 
985 
986 
989 
993 
999 
1002 
1015 
1017 
1028 
1067 
1077 
1079 
1095 
1097 
1102 
1105 
1117 
1130 
1135 
1136 
1137 
1143 
1148 
1150 
1151 
1152 
1155 
1156 
1157 
1160 
1162 
1164 
1165 
1167 
1168 
1170 
1171 
1173 
1174 
1176 
1180 
1181 
1183 
1184 
1185 
1190 
1194 
1195 
1201 
1202 
1205 
1209 
1211 
1215 
1216 
1218 
1219 
1221 
1222 
1225 
1227 
1228 
1232 
1236 
1239 
1241 
1244 
1245 
1247 
1249 
1251 
1252 
1253 
1254 
1255 
1256 
1259 
1264 
1265 
1266 
1268 
1273 
1274 
1277 
1278 
1281 
1283 
1284 
1287 
1289 
1292 
1293 
1294 
1296 
1297 
1310 
1312 
1314 
1315 
1316 
1319 
1320 
1323 
1325 
1331 
1333 
1335 
1338 
1340 
1347 
1350 
1356 
1360 
1362 
1365 
1366 
1372 
1373 
1376 
1379 
1381 
1388 
1391 
1392 
1393 
1411 
1413 
1415 
1416 
1419 
1420 
1422 
1423 
1425 
1426 
1429 
1433 
1437 
1439 
1445 
1446 
1451 
1452 
1458 
1459 
1462 
1463 
1467 
1468 
1470 
1471 
1474 
1476 
1477 
1482 
1487 
1498 
1502 
1513 
1514 
1515 
1517 
1518 
1520 
1521 
1522 
1524 
1525 
1528 
1533 
1534 
1535 
1539 
1540 
1544 
1546 
1548 
1550 
1552 
1555 
1556 
1557 
1560 
1566 
1567 
1568 
1569 
1570 
1576 
1580 
1586 
1587 
1590 
1591 
1593 
1595 
1600 
1603 
1610 
1612 
1613 
1615 
1621 
1622 
1623 
1626 
1630 
1633 
1635 
1636 
1638 
1639 
1651 
1652 
1655 
1657 
1658 
1660 
1665 
1667 
1668 
1672 
1674 
1676 
1677 
1680 
1681 
1687 
1690 
1694 
1697 
1698 
1700 
1701 
1703 
1705 
1707 
1709 
1711 
1712 
1726 
1730 
1731 
1735 
1736 
1738 
1739 
1740 
1742 
1747 
1751 
1755 
1759 
1760 
1763 
1772 
1774 
1775 
1777 
1778 
1783 
1785 
1790 
1791 
1793 
1797 
1799 
1804 
1808 
1815 
1818 
1821 
1828 
1832 
1834 
1843 
1844 
1845 
1847 
1850 
1851 
1852 
1853 
1854 
1855 
1860 
1861 
1864 
1866 
1869 
1870 
1873 
1876 
1877 
1878 
1884 
1887 
1888 
1892 
1897 
1899 
1900 
1901 
1902 
1903 
1908 
1916 
1919 
1920 
1923 
1925 
1932 
1937 
1938 
1940 
1941 
1943 
1947 
1949 
1950 
1951 
1955 
1964 
1966 
1981 
1983 
1984 
1985 
1987 
1988 
1992 
1993 
1996 
2000 
2002 
2003 
2004 
2005 
2008 
2015 
2021 
2024 
2025 
2026 
2027 
2028 
2031 
2032 
2037 
2041 
2042 
2045 
2048 
2050 
2051 
2053 
2054 
2058 
2065 
2066 
2072 
2074 
2076 
2084 
2085 
2086 
2088 
2090 
2092 
2094 
2095 
2099 
2104 
2106 
2111 
2114 
2117 
2119 
2122 
2123 
2124 
2125 
2128 
2141 
2142 
2143 
2144 
2148 
2149 
2150 
2152 
2154 
2155 
2160 
2161 
2163 
2164 
2170 
2171 