# vtk DataFile Version 3.0
MOAB 5.0.1
ASCII
DATASET UNSTRUCTURED_GRID
POINTS 67 double
-1 -0.4 0
-1 -0.4 0.1
-0.8 -0.4125 0
-0.8 -0.4125 0.1
-0.6 -0.425 0
-1.222228092 -0.3325878455 0
-1.153073372 -0.3695518134 0
-1.078036128 -0.3923141123 0
-0.6 -0.425 0.1
-1.078036129 -0.3923141121 0.1
-1.153073374 -0.3695518125 0.1
-1.222228094 -0.3325878442 0.1
-1 -0.4 0.025
-1 -0.4 0.05
-1 -0.4 0.075
-1 -0.3 0.025
-1 -0.3 0.05
-0.8763116554 -0.3512333901 0.1
-0.7526233108 -0.3024667803 0.1
-0.8 -0.4125 0.025
-0.8 -0.4125 0.05
-0.8 -0.4125 0.075
-0.8754845318 -0.3539820895 0
-1 -0.325 0
-1 -0.375 0
-0.9469669913 -0.3530330085 0
-1.147247364 -0.330486585 0
-1.076536686 -0.3597759067 0
-1.070710678 -0.3207106783 0
-1 -0.35 0
-0.9469669913 -0.3280330085 0
-0.6754845318 -0.3664820895 0
-0.4754845318 -0.3789820895 0
-0.7509690636 -0.3079641789 0
-0.5509690636 -0.3204641789 0
-0.6 -0.425 0.025
-0.6 -0.425 0.075
-0.6 -0.425 0.05
-1.078036129 -0.3923141122 0.075
-1.222228093 -0.3325878453 0.025
-1.153073372 -0.3695518133 0.025
-1.078036128 -0.3923141123 0.025
-1.153073373 -0.3695518128 0.075
-1.222228094 -0.3325878445 0.075
-1.078036129 -0.3923141122 0.05
-1.222228093 -0.332587845 0.05
-1.153073373 -0.3695518132 0.05
-0.9414729037 -0.2942355842 0.075
-0.9414729036 -0.2942355842 0.05
-0.8851949708 -0.27716386 0.05
-1.058527096 -0.2942355841 0.05
-0.4763116554 -0.3762333901 0.1
-0.6763116554 -0.3637333901 0.1
-1 -0.375 0.1
-0.9469669916 -0.3530330088 0.1
-1 -0.325 0.1
-1.076536687 -0.3597759063 0.1
-1.147247365 -0.3304865841 0.1
-1 -0.35 0.1
-1.070710678 -0.3207106779 0.1
-0.9469669916 -0.3280330088 0.1
-1.036065699 -0.366181189 0.0125000004
-1.036051951 -0.3483793294 0.06300950183
-1.101978245 -0.334060269 0.046242396
-1.169502234 -0.3084755849 0.04603179688
-0.9637563132 -0.3625 0.0625
-1.040984825 -0.3816269624 0.02718058433
CELLS 269 807
2 0 2
2 2 4
2 5 6
2 6 7
2 7 0
2 8 3
2 3 1
2 1 9
2 9 10
2 10 11
2 0 12
2 12 13
2 13 14
2 14 1
2 15 23
2 0 22
2 22 2
2 7 24
2 24 0
2 25 0
2 24 25
2 25 22
2 12 2
2 7 12
2 22 12
2 12 25
2 12 24
2 3 21
2 21 1
2 21 14
2 1 38
2 38 9
2 14 38
2 1 17
2 17 3
2 53 1
2 9 53
2 54 1
2 53 54
2 54 17
2 17 21
2 53 38
2 53 14
2 1 65
2 53 65
2 54 65
2 14 65
2 17 65
2 21 65
2 2 31
2 31 4
2 22 31
2 12 19
2 19 2
2 19 4
2 22 19
2 31 19
2 8 36
2 36 3
2 36 21
2 3 52
2 52 8
2 17 52
2 21 52
2 36 52
2 4 32
2 31 32
2 4 35
2 19 35
2 32 35
2 35 31
2 39 5
2 5 26
2 26 6
2 40 6
2 5 40
2 39 40
2 6 64
2 26 64
2 5 64
2 40 64
2 39 64
2 6 27
2 27 7
2 26 27
2 41 7
2 6 41
2 40 41
2 41 63
2 6 63
2 40 63
2 27 63
2 26 63
2 63 64
2 27 41
2 27 24
2 41 12
2 12 66
2 7 66
2 41 66
2 61 24
2 7 61
2 61 27
2 41 61
2 61 66
2 12 61
2 8 51
2 52 51
2 36 51
2 9 42
2 42 10
2 38 42
2 56 9
2 10 56
2 56 53
2 9 62
2 53 62
2 38 62
2 56 62
2 38 56
2 56 42
2 10 43
2 43 11
2 42 43
2 57 10
2 11 57
2 57 56
2 57 42
2 57 43
2 13 19
2 41 13
2 12 65
2 22 65
2 25 65
2 13 66
2 24 65
2 24 13
2 13 65
2 19 65
2 13 61
2 20 13
2 14 20
2 20 19
2 13 44
2 44 14
2 41 44
2 20 65
2 44 62
2 62 13
2 44 66
2 62 66
2 62 61
2 62 65
2 65 61
2 13 58
2 58 65
2 58 62
2 14 62
2 14 58
2 21 20
2 44 38
2 53 58
2 15 29
2 29 23
2 29 30
2 16 61
2 15 61
2 30 48
2 30 16
2 29 16
2 29 61
2 23 61
2 23 28
2 28 61
2 50 61
2 29 62
2 62 16
2 62 50
2 16 58
2 29 65
2 65 16
2 30 65
2 48 65
2 47 65
2 58 55
2 55 62
2 58 47
2 17 18
2 18 52
2 20 17
2 17 22
2 22 20
2 49 17
2 22 49
2 54 49
2 65 49
2 52 20
2 20 18
2 33 18
2 17 33
2 33 20
2 22 33
2 52 33
2 20 35
2 20 31
2 20 37
2 37 35
2 21 37
2 37 52
2 31 33
2 31 52
2 35 52
2 36 37
2 25 49
2 28 63
2 29 28
2 27 29
2 29 24
2 30 24
2 30 25
2 25 48
2 28 26
2 28 27
2 63 61
2 34 33
2 52 34
2 34 51
2 34 31
2 34 32
2 35 34
2 34 37
2 37 51
2 44 46
2 46 38
2 46 42
2 38 63
2 42 63
2 56 63
2 44 63
2 46 63
2 62 63
2 45 39
2 46 40
2 39 46
2 45 46
2 46 64
2 45 64
2 44 40
2 61 44
2 45 42
2 45 43
2 57 63
2 57 64
2 42 64
2 43 64
2 60 47
2 65 60
2 58 60
2 54 47
2 54 60
2 50 63
2 59 57
2 59 63
2 56 58
2 60 53
2 58 59
2 59 55
2 59 62
2 56 59
CELL_TYPES 269
3
3
3
3
3
3
3
3
3
3
3
3
3
3
3
3
3
3
3
3
3
3
3
3
3
3
3
3
3
3
3
3
3
3
3
3
3
3
3
3
3
3
3
3
3
3
3
3
3
3
3
3
3
3
3
3
3
3
3
3
3
3
3
3
3
3
3
3
3
3
3
3
3
3
3
3
3
3
3
3
3
3
3
3
3
3
3
3
3
3
3
3
3
3
3
3
3
3
3
3
3
3
3
3
3
3
3
3
3
3
3
3
3
3
3
3
3
3
3
3
3
3
3
3
3
3
3
3
3
3
3
3
3
3
3
3
3
3
3
3
3
3
3
3
3
3
3
3
3
3
3
3
3
3
3
3
3
3
3
3
3
3
3
3
3
3
3
3
3
3
3
3
3
3
3
3
3
3
3
3
3
3
3
3
3
3
3
3
3
3
3
3
3
3
3
3
3
3
3
3
3
3
3
3
3
3
3
3
3
3
3
3
3
3
3
3
3
3
3
3
3
3
3
3
3
3
3
3
3
3
3
3
3
3
3
3
3
3
3
3
3
3
3
3
3
3
3
3
3
3
3
3
3
3
3
3
3
3
3
3
3
3
3
3
3
3
3
3
3
POINT_DATA 67
SCALARS GLOBAL_ID int 1
LOOKUP_TABLE default
11 
25 
59 
86 
97 
113 
114 
115 
233 
234 
235 
236 
313 
314 
315 
321 
322 
534 
537 
590 
591 
592 
593 
695 
696 
697 
704 
705 
712 
713 
714 
795 
796 
849 
850 
1058 
1064 
1066 
1077 
1079 
1081 
1082 
1083 
1084 
1085 
1087 
1088 
1120 
1121 
1122 
1140 
1381 
1382 
1480 
1481 
1482 
1490 
1491 
1497 
1498 
1499 
2172 
2173 
2175 
2178 
2179 
2180 
SCALARS LOCAL_ID_L1 int 1
LOOKUP_TABLE default
0 
1 
2 
3 
0 
10 
6 
7 
9 
9 
10 
25 
12 
13 
14 
38 
39 
52 
53 
19 
20 
21 
61 
71 
24 
72 
79 
27 
86 
87 
88 
31 
13 
97 
20 
25 
30 
31 
38 
131 
40 
41 
42 
133 
44 
135 
46 
145 
146 
147 
160 
48 
44 
53 
170 
171 
56 
179 
185 
186 
187 
244 
245 
247 
250 
251 
66 
CELL_DATA 269
SCALARS GLOBAL_ID int 1
LOOKUP_TABLE default
8 
9 
29 
30 
31 
174 
175 
176 
177 
178 
272 
273 
274 
275 
699 
770 
771 
772 
773 
774 
775 
776 
777 
778 
779 
780 
781 
932 
933 
934 
935 
936 
937 
938 
939 
940 
941 
942 
943 
944 
945 
946 
947 
948 
949 
950 
951 
952 
953 
1427 
1428 
1429 
1430 
1431 
1432 
1433 
1434 
1975 
1976 
1977 
1978 
1979 
1980 
1981 
1982 
2111 
2113 
2114 
2116 
2117 
2118 
2230 
2239 
2240 
2242 
2243 
2244 
2245 
2246 
2247 
2249 
2250 
2252 
2253 
2254 
2255 
2256 
2257 
2258 
2259 
2260 
2261 
2262 
2263 
2264 
2265 
2266 
2267 
2268 
2269 
2270 
2271 
2272 
2273 
2274 
2275 
3439 
3445 
3446 
3447 
3448 
3449 
3450 
3451 
3452 
3453 
3454 
3455 
3456 
3457 
3458 
3459 
3460 
3461 
3462 
3463 
3464 
3465 
3466 
4277 
4278 
4279 
4280 
4281 
4282 
4283 
4284 
4285 
4286 
4287 
4288 
4289 
4290 
4291 
4292 
4293 
4294 
4295 
4296 
4297 
4298 
4299 
4300 
4301 
4302 
4303 
4304 
4305 
4306 
4307 
4308 
4309 
4385 
4386 
4389 
4392 
4394 
4395 
4396 
4398 
4399 
4400 
4401 
4404 
4418 
4419 
4420 
4421 
4422 
4425 
4426 
4427 
4428 
4429 
4441 
4442 
4444 
6420 
6421 
6424 
6425 
6426 
6430 
6432 
6434 
6435 
6437 
6438 
6439 
6440 
6441 
6443 
6476 
7047 
7048 
7049 
7050 
7051 
7052 
7053 
7054 
7055 
7056 
7058 
7662 
7664 
7665 
7666 
7667 
7668 
7670 
7708 
7709 
7710 
8614 
8618 
8625 
8885 
8886 
8887 
8891 
8892 
10031 
10032 
10033 
10034 
10035 
10036 
10037 
10038 
10039 
10042 
10044 
10045 
10046 
10047 
10048 
10054 
10055 
10056 
10057 
10058 
10059 
10060 
10061 
10145 
10146 
10147 
10149 
10150 
10171 
10212 
10214 
10514 
10515 
10516 
10517 
10518 
10522 
SCALARS LOCAL_ID_L1 int 1
LOOKUP_TABLE default
0 
1 
2 
3 
4 
5 
6 
7 
8 
9 
10 
11 
12 
13 
72 
15 
16 
17 
18 
19 
20 
82 
22 
23 
24 
25 
26 
27 
28 
29 
30 
31 
32 
33 
34 
35 
36 
37 
38 
83 
40 
41 
42 
43 
44 
84 
46 
47 
48 
49 
50 
51 
52 
53 
54 
55 
56 
8 
58 
59 
60 
61 
62 
63 
64 
9 
66 
11 
68 
13 
70 
176 
185 
73 
74 
75 
76 
77 
187 
188 
80 
190 
82 
83 
84 
85 
86 
87 
88 
89 
90 
91 
192 
193 
94 
95 
96 
97 
98 
99 
100 
101 
102 
103 
104 
105 
77 
83 
84 
109 
110 
111 
112 
113 
114 
115 
116 
117 
118 
119 
120 
121 
341 
123 
124 
342 
126 
127 
343 
129 
130 
131 
132 
471 
134 
135 
136 
137 
138 
139 
140 
141 
142 
143 
144 
145 
146 
147 
148 
149 
150 
472 
152 
153 
154 
473 
474 
157 
158 
159 
160 
161 
479 
480 
483 
486 
488 
489 
490 
492 
493 
494 
495 
498 
512 
175 
513 
514 
515 
179 
518 
519 
520 
521 
533 
534 
536 
662 
663 
189 
666 
191 
670 
672 
674 
675 
196 
197 
677 
678 
200 
680 
691 
203 
204 
205 
86 
207 
208 
209 
210 
211 
87 
773 
817 
215 
216 
217 
218 
819 
821 
859 
222 
860 
886 
143 
174 
227 
150 
151 
155 
156 
232 
233 
234 
235 
236 
237 
238 
239 
1014 
1017 
242 
243 
244 
245 
1019 
247 
248 
249 
1025 
1026 
1027 
253 
1028 
1078 
256 
1079 
1081 
1082 
1097 
1138 
1140 
263 
264 
265 
1158 
1159 
268 
