# vtk DataFile Version 3.0
MOAB 5.0.1
ASCII
DATASET UNSTRUCTURED_GRID
POINTS 66 double
0 0 0
1 0 0
0 1 0
1 1 0
0 0 1
1 0 1
0 1 1
1 1 1
0.5 0 1
1 0 0.5
0.5 0 0
0 0 0.5
0 0.5 1
0.5 1 1
1 1 0.5
0.5 1 0
0 1 0.5
0 0.5 0
1 0.5 1
1 0.5 0
0.5532675983 0.4352635691 1
0.4199347618 0.7645107395 1
0.6066264751 0.7127492974 1
0 0.5532657569 0.4352625089
0 0.4199333007 0.7645098983
0 0.6066250341 0.7127484678
0.4467324017 1 0.5647364309
0.5800652382 1 0.2354892605
0.3933735249 1 0.2872507026
0.4990234375 0.4990234375 0
0.4467324017 0 0.5647364309
0.5800652382 0 0.2354892605
0.3933735249 0 0.2872507026
1 0.4999994886 0.4999994886
0.2125422389 0.231708931 0.8381831642
0.7964643796 0.2329222601 0.9259420613
0.1663901427 0.782272904 0.8834030937
0.6148520994 0.893232269 0.8797057465
0.8191066203 0.6472491733 0.923657195
0.2585234783 0.6183419867 0.8281966839
0.1621159255 0.2436280133 0.2239964331
0.1200093642 0.8198921004 0.2426794853
0.06720199375 0.21485423 0.8177446487
0.1256714979 0.6598264789 0.8876504848
0.1315070762 0.8360290117 0.6559787857
0.1855247367 0.2951337889 0.6397686568
0.4229486726 0.88425039 0.1069395054
0.1852117736 0.9429961449 0.3426489049
0.7930967323 0.9220611936 0.1651813472
0.2303315483 0.8301036661 0.79497903
0.766832234 0.8737271237 0.801703741
0.6942678243 0.8092913534 0.3061126211
0.2629614173 0.2196231549 0.09349685766
0.7543557497 0.2002157369 0.1687287926
0.253659597 0.8014888975 0.1081063596
0.7225963 0.7933718289 0.1590909866
0.3790107043 0.1206238731 0.106905401
0.1747001862 0.140461273 0.3385681828
0.7960467513 0.07762172668 0.1693295043
0.1494153107 0.1583153374 0.7689012514
0.7613183432 0.2017976242 0.800581048
0.6985663092 0.1897291983 0.3062951797
0.8405475301 0.1589334729 0.2374457893
0.8384148094 0.8384744796 0.231677793
0.8581527388 0.3261798268 0.8386725959
0.8845564423 0.7405555351 0.8066120514
CELLS 0 0
CELL_TYPES 0
POINT_DATA 66
SCALARS GLOBAL_ID int 1
LOOKUP_TABLE default
0 
1 
2 
3 
4 
5 
6 
7 
8 
9 
10 
11 
12 
13 
14 
15 
16 
17 
18 
19 
20 
21 
22 
23 
24 
25 
26 
27 
28 
29 
30 
31 
32 
33 
34 
35 
36 
37 
38 
39 
40 
41 
42 
43 
44 
45 
46 
47 
48 
49 
50 
51 
52 
53 
54 
55 
56 
57 
58 
59 
60 
61 
62 
63 
64 
65 
SCALARS SKINPOINT int 1
LOOKUP_TABLE default
200 
200 
200 
200 
200 
200 
200 
200 
200 
200 
200 
200 
200 
200 
200 
200 
200 
200 
200 
200 
200 
200 
200 
200 
200 
200 
200 
200 
200 
200 
200 
200 
200 
200 
0 
0 
0 
0 
0 
0 
0 
0 
0 
0 
0 
0 
0 
0 
0 
0 
0 
0 
0 
0 
0 
0 
0 
0 
0 
0 
0 
0 
0 
0 
0 
0 
SCALARS ID-NODES int 1
LOOKUP_TABLE default
0 
1 
2 
3 
4 
5 
6 
7 
8 
9 
10 
11 
12 
13 
14 
15 
16 
17 
18 
19 
20 
21 
22 
23 
24 
25 
26 
27 
28 
29 
30 
31 
32 
33 
34 
35 
36 
37 
38 
39 
40 
41 
42 
43 
44 
45 
46 
47 
48 
49 
50 
51 
52 
53 
54 
55 
56 
57 
58 
59 
60 
61 
62 
63 
64 
65 
SCALARS FLAGS int 1
LOOKUP_TABLE default
101 
101 
101 
101 
202 
202 
202 
202 
0 
0 
0 
0 
0 
0 
0 
0 
0 
0 
0 
0 
0 
0 
0 
0 
0 
0 
0 
0 
0 
0 
0 
0 
0 
0 
0 
0 
0 
0 
0 
0 
0 
0 
0 
0 
0 
0 
0 
0 
0 
0 
0 
0 
0 
0 
0 
0 
0 
0 
0 
0 
0 
0 
0 
0 
0 
0 
