# vtk DataFile Version 3.0
MOAB 5.0.1
ASCII
DATASET UNSTRUCTURED_GRID
POINTS 234 double
0 0 0
4 0 0
0 4 0
4 4 0
0 0 4
4 0 4
0 4 4
4 4 4
1 0 4
2 0 4
3 0 4
4 0 3
4 0 2
4 0 1
3 0 0
2 0 0
1 0 0
0 0 1
0 0 2
0 0 3
0 1 4
0 2 4
0 3 4
1 4 4
2 4 4
3 4 4
4 4 3
4 4 2
4 4 1
3 4 0
2 4 0
1 4 0
0 4 1
0 4 2
0 4 3
0 3 0
0 2 0
0 1 0
4 1 4
4 2 4
4 3 4
4 1 0
4 2 0
4 3 0
2.000714068 2.000716988 4
0.9976943334 0.9980206692 4
3.002586166 0.9977809362 4
0.9981067348 3.002914665 4
3.003015514 3.002691879 4
2.000232292 0.9984029119 4
0.9984085756 2.00092552 4
2.000993356 3.002424797 4
3.002418404 2.000290822 4
0 1.982670864 2.005427087
0 2.990651721 1.004754587
0 0.9922028029 3.003210873
0 0.9916031266 1.000746564
0 2.992584477 3.00164249
0 1.989906842 1.002951613
0 2.990953379 2.003506833
0 0.9906531966 2.002616052
0 1.991597097 3.002905454
1.998674578 4 2
3.001748626 4 3.002408881
3.001748626 4 0.9975911186
0.9969472758 4 3.002408881
0.9969472758 4 0.9975911186
3.001174169 4 2
1.99884072 4 0.9979867958
1.99884072 4 3.002013204
0.997297024 4 2
1.998298005 2.019797945 0
2.996847348 1.010307455 0
3.000529107 3.009029785 0
0.9983520344 3.008802769 0
1.001032787 1.009533466 0
1.999238006 3.01087687 0
1.998872511 1.011101974 0
2.999012996 2.010354553 0
0.9992380993 2.009989058 0
1.998674578 0 2
3.001748626 0 3.002408881
3.001748626 0 0.9975911186
0.9969472758 0 3.002408881
0.9969472758 0 0.9975911186
3.001174169 0 2
1.99884072 0 0.9979867958
1.99884072 0 3.002013204
0.997297024 0 2
4 2.011370774 1.988632146
4 1.007207473 2.993118863
4 3.007076634 2.997731297
4 1.002018177 0.9931765938
4 3.005339533 0.9943368316
4 1.005521946 1.992648674
4 2.007612776 2.994904169
4 3.006711889 1.994719553
4 2.004562773 0.9933096455
2.166319888 2.181109085 2.11103803
1.412908864 1.412997216 1.415096065
1.278769428 1.277159388 2.72312671
1.273626784 2.723528336 1.277974227
2.723798764 1.276077191 1.273653778
1.150388127 2.948138642 2.516677619
3.029814469 2.47461141 1.08063006
2.517847089 1.148193083 2.954948471
3.035585442 3.001261422 2.47153489
3.222927035 1.762214094 2.085098956
2.113793105 3.199954969 1.743885001
1.676068406 2.104616596 3.168043305
2.101089156 0.9661077702 1.953483504
1.951897698 2.101890997 0.9666901843
0.9667453125 1.953836825 2.09941923
2.261369802 3.174354336 3.121930463
3.266957818 3.116550223 1.692871344
3.085677609 2.186906108 3.204203352
0.8508395931 0.836700447 1.808706645
1.677762138 0.8165978745 0.8194541842
0.8166186988 1.674177848 0.8193798907
3.218005804 0.7712207611 2.406611155
2.427773288 3.185643869 0.817213055
1.609709797 3.263164204 0.735795898
0.7925160956 2.424010947 3.195605003
0.7446389207 1.647644188 3.301938664
3.264221234 0.7357936714 1.595643052
1.675043605 0.8334681442 3.283755119
3.271128639 1.6901244 0.8134496048
0.8366043666 3.270906417 1.677096704
3.274677101 3.273045864 3.278694369
0.7812287929 3.250635074 3.260285061
0.7118948181 0.7115173957 3.28234523
3.288193497 3.294914006 0.7171865841
3.259092901 0.7785867993 3.25054362
3.311065565 0.6990147784 0.6943113003
0.7044422414 0.705862571 0.7133219538
0.6907187017 3.315096231 0.6890771982
0.7576310643 2.472043795 0.7554228433
2.482304086 0.7608364287 0.7635089944
0.4624150835 0.4841802307 3.735164914
3.497767169 0.5033949427 3.722045612
0.5019304832 3.506557638 3.726912702
3.531269923 3.509380704 3.729982177
1.399086994 0.5144677185 3.694302865
2.495400795 0.62213996 3.570426275
0.5053991086 1.384187036 3.696710108
0.5906224041 2.472362554 3.626040914
1.499803708 3.423690262 3.642822457
2.598643692 3.457410985 3.660896455
3.355625856 1.495220496 3.577386068
3.468628865 2.608637974 3.667301593
1.414481409 1.486799473 3.527514329
2.459562019 1.495608947 3.493756026
1.41256762 2.619694519 3.572714005
2.460260431 2.528792644 3.606662797
0.2683571846 0.4918814512 0.4900387128
0.2671822537 3.508256038 0.4882019545
0.2601879368 0.4834671994 3.517701611
0.2833274682 3.495193537 3.508302629
0.3334528746 0.5555783467 1.414860757
0.5009510089 0.6819269824 2.536400615
0.306928389 1.377042701 3.479675634
0.3854659361 2.471139419 3.423278316
0.3245376606 3.488940317 1.401639312
0.4633116915 3.357992138 2.493899749
0.3673457337 2.504096024 0.574576308
0.3266910253 1.396252405 0.5271823189
0.5451870285 2.447160751 1.42344441
0.5226438442 1.472547242 2.499683279
0.5424663709 1.482557986 1.538946278
0.4563784314 2.449155021 2.547748747
0.4693333157 3.728199008 0.4706981539
3.528068301 3.727163906 0.4700842894
0.5043612578 3.719885295 3.508969817
3.530347638 3.727698247 3.528739775
1.484561064 3.577856622 3.329201717
2.61599207 3.664886459 3.444826583
3.400692235 3.570344933 2.494185793
3.479242535 3.656542626 1.396144209
2.469599122 3.619243983 0.5968428119
1.38428787 3.690023374 0.508908612
0.5469238951 3.690036977 1.392783625
0.657987354 3.560271494 2.492990592
2.515102687 3.579158707 2.4759069
2.536656436 3.608827268 1.433048657
1.491974425 3.490283019 2.458141168
1.480767483 3.520421417 1.411358305
0.4698829228 0.4926771591 0.2713488074
3.51168197 0.4925735985 0.2673320968
0.4686209577 3.51045651 0.2694116437
3.510712786 3.50842709 0.2682008067
2.507662858 0.5791189074 0.369964585
1.398473669 0.5283839628 0.3276231443
2.471143441 3.419217868 0.3830730425
1.376147692 3.47084898 0.3105503616
0.5662719628 2.509780301 0.3601860548
0.5493969396 1.392885115 0.3295438131
3.490843527 1.403950524 0.3241006874
3.356840623 2.494004237 0.4481434289
2.45193247 1.429957079 0.5428058282
2.459012173 2.550185138 0.4553769556
1.451397247 2.577691366 0.5038094612
1.482769159 1.514367334 0.5377691339
0.4702276894 0.2732119289 0.4724268802
3.52899734 0.2725564802 0.4694853879
0.4639278749 0.2665980456 3.533301953
3.507777189 0.2833750587 3.509518615
1.383187239 0.3277208792 3.477487516
2.493331808 0.4527373107 3.380105248
3.41341004 0.3883053675 2.469379778
3.490727524 0.3107880484 1.381565514
2.509803952 0.3625894147 0.5682972165
1.390707913 0.3288301854 0.5498919788
0.550332717 0.3302543974 1.422060534
0.6903361306 0.4914166851 2.537314248
2.545381101 0.4580609357 2.451719652
2.573933544 0.5041299472 1.450251686
1.502378931 0.5308965612 2.46284476
1.516098293 0.5392633688 1.511425335
3.730340993 0.4912555007 0.4682823179
3.729250227 3.508959851 0.4691082744
3.721869182 0.5059988076 3.501043892
3.732550189 3.509058924 3.511352401
3.628767197 0.5878192362 2.468725599
3.689233709 0.5326738684 1.371940864
3.58295775 3.373327188 2.485219436
3.669774803 3.452075422 1.378205429
3.64311351 1.48382662 3.441858613
3.654658071 2.585137914 3.457109367
3.690469888 1.394719902 0.5456497778
3.568097294 2.492842453 0.6518473797
3.562215506 1.419016364 2.615099954
3.570160173 2.512223573 2.439146843
3.519305132 1.416304968 1.475044874
3.520415919 2.380989898 1.458271105
CELLS 868 4436
4 233 104 107 114
4 216 100 110 116
4 184 103 108 113
4 105 109 151 115
4 100 110 99 112
4 99 110 102 111
4 198 102 111 137
4 99 111 101 112
4 101 112 166 136
4 146 174 113 129
4 226 148 115 132
4 198 111 117 137
4 152 113 109 129
4 230 115 107 132
4 112 118 166 136
4 233 107 89 114
4 167 112 100 116
4 184 108 62 113
4 151 109 44 115
4 109 122 152 129
4 151 109 105 125
4 184 108 103 127
4 233 107 104 126
4 230 107 119 132
4 98 102 110 111
4 51 113 152 129
4 98 110 100 112
4 101 111 98 112
4 95 115 230 132
4 51 109 152 113
4 95 107 230 115
4 98 110 99 111
4 98 99 110 112
4 102 117 111 137
4 99 98 111 112
4 226 115 95 132
4 216 110 100 125
4 198 111 102 126
4 51 146 113 129
4 101 118 112 136
4 231 106 96 114
4 107 115 105 132
4 166 112 101 127
4 109 113 103 129
4 55 159 100 130
4 151 49 109 125
4 62 108 184 127
4 49 150 109 125
4 83 100 213 130
4 185 108 62 127
4 233 89 107 126
4 198 117 77 137
4 62 108 182 113
4 44 109 153 115
4 229 104 197 126
4 101 121 200 136
4 182 108 106 113
4 102 124 215 137
4 89 232 107 126
4 217 110 99 116
4 168 112 99 118
4 207 143 105 125
4 98 104 102 111
4 200 111 101 136
4 181 103 163 127
4 201 111 99 117
4 215 110 102 137
4 231 96 89 114
4 168 99 112 116
4 217 99 110 117
4 98 103 101 112
4 99 111 201 118
4 98 105 100 110
4 100 112 167 123
4 96 233 89 114
4 200 101 111 121
4 102 110 215 124
4 58 166 118 136
4 153 109 113 115
4 99 116 168 118
4 103 122 109 129
4 217 116 99 117
4 201 117 99 118
4 216 110 88 116
4 90 95 230 132
4 105 119 107 132
4 198 111 77 117
4 99 110 100 116
4 99 111 102 117
4 226 95 90 132
4 99 112 101 118
4 151 105 49 125
4 70 62 184 127
4 185 62 70 127
4 44 151 49 109
4 44 49 150 109
4 197 104 229 131
4 58 166 112 118
4 233 104 97 126
4 207 105 143 132
4 232 107 102 124
4 103 98 108 113
4 233 97 89 126
4 185 108 101 121
4 163 103 181 129
4 47 146 51 129
4 98 109 105 115
4 150 109 100 123
4 89 97 232 126
4 51 152 47 129
4 70 184 103 127
4 150 123 100 125
4 185 121 101 127
4 150 100 109 125
4 55 100 167 123
4 185 101 108 127
4 88 110 217 116
4 232 102 107 126
4 101 103 98 108
4 232 124 102 126
4 102 104 98 107
4 100 105 98 109
4 168 58 112 118
4 198 126 102 137
4 166 127 101 136
4 77 111 201 117
4 231 106 107 115
4 230 119 90 132
4 78 104 199 111
4 87 105 214 110
4 184 62 69 113
4 62 182 69 113
4 98 101 108 111
4 52 151 44 115
4 52 44 153 115
4 98 102 107 110
4 192 120 178 121
4 86 110 215 137
4 98 100 109 112
4 79 111 200 136
4 60 112 167 116
4 59 103 169 112
4 145 161 122 123
4 47 152 122 129
4 198 78 111 126
4 87 110 216 125
4 105 109 100 125
4 103 108 101 127
4 224 106 176 114
4 101 111 99 118
4 59 112 166 127
4 100 112 99 116
4 104 107 102 126
4 102 110 99 117
4 199 111 104 120
4 111 118 101 136
4 110 117 102 137
4 169 112 103 122
4 88 216 80 110
4 88 80 217 110
4 102 107 110 124
4 214 110 105 119
4 200 111 76 121
4 85 215 110 124
4 216 100 83 125
4 61 167 112 123
4 53 168 58 112
4 53 58 166 112
4 100 109 112 123
4 106 108 98 113
4 108 111 101 121
4 98 113 109 115
4 67 106 182 108
4 77 71 201 111
4 77 198 71 111
4 168 112 60 116
4 79 201 111 118
4 104 111 78 126
4 79 118 111 136
4 217 110 86 117
4 86 117 110 137
4 199 76 111 120
4 102 111 104 126
4 87 105 110 125
4 169 61 112 122
4 98 104 108 114
4 176 27 224 114
4 107 119 110 124
4 100 110 105 125
4 101 112 103 127
[...]
POINT_DATA 234
SCALARS GLOBAL_ID int 1
LOOKUP_TABLE default
0 
1 
2 
3 
4 
5 
6 
7 
8 
9 
10 
11 
12 
13 
14 
15 
16 
17 
18 
19 
20 
21 
22 
23 
24 
25 
26 
27 
28 
29 
30 
31 
32 
33 
34 
35 
36 
37 
38 
39 
40 
41 
42 
43 
44 
45 
46 
47 
48 
49 
50 
51 
52 
53 
54 
55 
56 
57 
58 
59 
60 
61 
62 
63 
64 
65 
66 
67 
68 
69 
70 
71 
72 
73 
74 
75 
76 
77 
78 
79 
80 
81 
82 
83 
84 
85 
86 
87 
88 
89 
90 
91 
92 
93 
94 
95 
96 
97 
98 
99 
100 
101 
102 
103 
104 
105 
106 
107 
108 
109 
110 
111 
112 
113 
114 
115 
116 
117 
118 
119 
120 
121 
122 
123 
124 
125 
126 
127 
128 
129 
130 
131 
132 
133 
134 
135 
136 
137 
138 
139 
140 
141 
142 
143 
144 
145 
146 
147 
148 
149 
150 
151 
152 
153 
154 
155 
156 
157 
158 
159 
160 
161 
162 
163 
164 
165 
166 
167 
168 
169 
170 
171 
172 
173 
174 
175 
176 
177 
178 
179 
180 
181 
182 
183 
184 
185 
186 
187 
188 
189 
190 
191 
192 
193 
194 
195 
196 
197 
198 
199 
200 
201 
202 
203 
204 
205 
206 
207 
208 
209 
210 
211 
212 
213 
214 
215 
216 
217 
218 
219 
220 
221 
222 
223 
224 
225 
226 
227 
228 
229 
230 
231 
232 
233 
CELL_DATA 868
SCALARS GLOBAL_ID int 1
LOOKUP_TABLE default
0 
1 
2 
3 
4 
5 
6 
7 
8 
9 
10 
11 
12 
13 
14 
15 
16 
17 
18 
19 
20 
21 
22 
23 
24 
25 
26 
27 
28 
29 
30 
31 
32 
33 
34 
35 
36 
37 
38 
39 
40 
41 
42 
43 
44 
45 
46 
47 
48 
49 
50 
51 
52 
53 
54 
55 
56 
57 
58 
59 
60 
61 
62 
63 
64 
65 
66 
67 
68 
69 
70 
71 
72 
73 
74 
75 
76 
77 
78 
79 
80 
81 
82 
83 
84 
85 
86 
87 
88 
89 
90 
91 
92 
93 
94 
95 
96 
97 
98 
99 
100 
101 
102 
103 
104 
105 
106 
107 
108 
109 
110 
111 
112 
113 
114 
115 
116 
117 
118 
119 
120 
121 
122 
123 
124 
125 
126 
127 
128 
129 
130 
131 
132 
133 
134 
135 
136 
137 
138 
139 
140 
141 
142 
143 
144 
145 
146 
147 
148 
149 
150 
151 
152 
153 
154 
155 
156 
157 
158 
159 
160 
161 
162 
163 
164 
165 
166 
167 
168 
169 
170 
171 
172 
173 
174 
175 
176 
177 
178 
179 
180 
181 
182 
183 
184 
185 
186 
187 
188 
189 
190 
191 
192 
193 
194 
195 
196 
197 
198 
199 
200 
201 
202 
203 
204 
205 
206 
207 
208 
209 
210 
211 
212 
213 
214 
215 
216 
217 
218 
219 
220 
221 
222 
223 
224 
225 
226 
227 
228 
229 
230 
231 
232 
233 
234 
235 
236 
237 
238 
239 
240 
241 
242 
243 
244 
245 
246 
247 
248 
249 
250 
251 
252 
253 
254 
255 
256 
257 
258 
259 
260 
261 
262 
263 
264 
265 
266 
267 
268 
269 
270 
271 
272 
273 
274 
275 
276 
277 
278 
279 
280 
281 
282 
283 
284 
285 
286 
287 
288 
289 
290 
291 
292 
293 
294 
295 
296 
297 
298 
299 
300 
301 
302 
303 
304 
305 
306 
307 
308 
309 
310 
311 
312 
313 
314 
315 
316 
317 
318 
319 
320 
321 
322 
323 
324 
325 
326 
327 
328 
329 
330 
331 
332 
333 
334 
335 
336 
337 
338 
339 
340 
341 
342 
343 
344 
345 
346 
347 
348 
349 
350 
351 
352 
353 
354 
355 
356 
357 
358 
359 
360 
361 
362 
363 
364 
365 
366 
367 
368 
369 
370 
371 
372 
373 
374 
375 
376 
377 
378 
379 
380 
381 
382 
383 
384 
385 
386 
387 
388 
389 
390 
391 
392 
393 
394 
395 
396 
397 
398 
399 
400 
401 
402 
403 
404 
405 
406 
407 
408 
409 
410 
411 
412 
413 
414 
415 
416 
417 
418 
419 
420 
421 
422 
423 
424 
425 
426 
427 
428 
429 
430 
431 
432 
433 
434 
435 
436 
437 
438 
439 
440 
441 
442 
443 
444 
445 
446 
447 
448 
449 
450 
451 
452 
453 
454 
455 
456 
457 
458 
459 
460 
461 
462 
463 
464 
465 
466 
467 
468 
469 
470 
471 
472 
473 
474 
475 
476 
477 
478 
479 
480 
481 
482 
483 
484 
485 
486 
487 
488 
489 
490 
491 
492 
493 
494 
495 
496 
497 
498 
499 
500 
501 
502 
503 
504 
505 
506 
507 
508 
509 
510 
511 
512 
513 
514 
515 
516 
517 
518 
519 
520 
521 
522 
523 
524 
525 
526 
527 
528 
529 
530 
531 
532 
533 
534 
535 
536 
537 
538 
539 
540 
541 
542 
543 
544 
545 
546 
547 
548 
549 
550 
551 
552 
553 
554 
555 
556 
557 
558 
559 
560 
561 
562 
563 
564 
565 
566 
567 
568 
569 
570 
571 
572 
573 
574 
575 
576 
577 
578 
579 
580 
581 
582 
583 
584 
585 
586 
587 
588 
589 
590 
591 
592 
593 
594 
595 
596 
597 
598 
599 
600 
601 
602 
603 
604 
605 
606 
607 
608 
609 
610 
611 
612 
613 
614 
615 
616 
617 
618 
619 
620 
621 
622 
623 
624 
625 
626 
627 
628 
629 
630 
631 
632 
633 
634 
635 
636 
637 
638 
639 
640 
641 
642 
643 
644 
645 
646 
647 
648 
649 
650 
651 
652 
653 
654 
655 
656 
657 
658 
659 
660 
661 
662 
663 
664 
665 
666 
667 
668 
669 
670 
671 
672 
673 
674 
675 
676 
677 
678 
679 
680 
681 
682 
683 
684 
685 
686 
687 
688 
689 
690 
691 
692 
693 
694 
695 
696 
697 
698 
699 
700 
701 
702 
703 
704 
705 
706 
707 
708 
709 
710 
711 
712 
713 
714 
715 
716 
717 
718 
719 
720 
721 
722 
723 
724 
725 
726 
727 
728 
729 
730 
731 
732 
733 
734 
735 
736 
737 
738 
739 
740 
741 
742 
743 
744 
745 
746 
747 
748 
749 
750 
751 
752 
753 
754 
755 
756 
757 
758 
759 
760 
761 
762 
763 
764 
765 
766 
767 
768 
769 
770 
771 
772 
773 
774 
775 
776 
777 
778 
779 
780 
781 
782 
783 
784 
785 
786 
787 
788 
789 
790 
791 
792 
793 
794 
795 
796 
797 
798 
799 
800 
801 
802 
803 
804 
805 
806 
807 
808 
809 
810 
811 
812 
813 
814 
815 
816 
817 
818 
819 
820 
821 
822 
823 
824 
825 
826 
827 
828 
829 
830 
831 
832 
833 
834 
835 
836 
837 
838 
839 
840 
841 
842 
843 
844 
845 
846 
847 
848 
849 
850 
851 
852 
853 
854 
855 
856 
857 
858 
859 
860 
861 
862 
863 
864 
865 
866 
867 
VECTORS CENTER double
3.26002881 2.433591406 1.579217866 
1.433269277 0.9027160417 2.237040405 
1.754381365 3.203182741 2.460158563 
2.434788781 1.733831184 3.205237789 
1.43987819 1.4025253 2.047781377 
2.047423621 1.439268293 1.402230883 
2.402483255 1.392190424 0.8866646963 
1.401294665 2.048063344 1.439794927 
0.8857975472 2.399142427 1.389065177 
1.506740842 3.356634073 3.338559924 
3.335877469 1.486135006 3.368497913 
2.140974098 1.277320595 0.7731147978 
1.532808655 2.787325131 3.280743209 
3.282478263 1.536680841 2.788736471 
0.771545526 2.136804805 1.274416593 
3.502575193 2.317781247 1.806218388 
0.9047495446 1.385060976 2.282733966 
1.966452977 3.466148081 2.330989158 
2.305505525 1.94696216 3.466500671 
1.165595229 2.599739284 3.299161844 
2.08213028 1.395471693 3.22512573 
1.398190006 3.227320762 2.098950123 
3.261071515 2.076984951 1.359362431 
3.315560311 1.182759504 2.589338421 
2.235776377 1.631296261 1.576216374 
1.614039893 3.011777181 3.488732382 
1.628230946 1.594553267 2.221766869 
1.589647421 2.240091311 1.613780418 
3.476746504 1.598030512 3.016187774 
1.837749796 2.725272562 3.465671943 
3.467705037 1.843937335 2.724826608 
1.908053902 1.665526267 1.611576946 
1.661765805 1.628512724 1.894759207 
2.208940672 1.238850623 0.9558267853 
1.624467941 1.912458531 1.648060877 
3.496971005 1.614233076 3.222877439 
1.63932028 0.901907966 2.605802523 
2.599689393 1.624512417 0.8991498489 
1.635848915 3.212776117 3.506259495 
0.9536554648 2.205896701 1.238049048 
3.468175858 2.909186777 2.149568158 
3.021386158 1.468975021 2.8736986 
0.9055408728 2.598858082 1.619483643 
1.467263782 2.869436162 3.016734112 
0.6229038139 0.9157016423 2.886270857 
1.952726581 1.35802415 3.486388612 
1.610261619 3.490286101 1.969780718 
1.691456428 1.355821781 3.494828188 
0.9194869132 0.6200233673 2.886298767 
1.607459883 3.497820701 1.708085003 
3.503617898 1.961174792 1.586362953 
2.152717801 1.004623339 0.5314422517 
2.222235043 3.488367003 2.335430591 
2.305680128 2.205258084 3.494727364 
3.306470256 2.287895625 0.7485176184 
1.273091223 2.759106925 0.8182506073 
2.481462759 3.238682358 2.453314313 
2.761064407 0.8192093096 1.270764378 
3.503340201 1.720003559 1.590556395 
1.470233977 0.9387672004 1.672177887 
0.9346848116 1.630892469 1.468210366 
2.295405824 0.7641346245 3.297308778 
2.467957705 2.008422171 1.358003013 
1.358638198 2.468788624 0.8759741789 
0.7770728849 3.284327173 2.295166166 
1.631334465 1.461463355 0.9347523919 
2.470281388 0.8767878342 1.360224491 
3.709279498 2.661714115 2.028842472 
0.9432400352 1.421523119 1.715542054 
1.676964613 0.9337415573 1.424864772 
1.389270028 2.451653222 2.001277276 
1.416048605 1.675858349 0.9347338185 
2.01600639 1.393142332 2.435649179 
0.8781993765 1.587796911 2.656041971 
3.696843434 2.628905696 1.783623537 
1.571657881 2.666568726 0.8710674426 
2.665760675 0.8705271449 1.568258005 
0.5298591979 2.145822309 1.000299689 
2.370844062 2.498667421 3.275209979 
0.9057083817 1.351608374 1.39553222 
1.100050355 2.681850315 3.035152747 
1.364402222 0.9013897265 1.388670557 
1.347514715 1.354535068 0.8979248185 
1.362901176 0.5834261946 2.056258727 
3.705327102 1.303105853 2.963416651 
3.054468207 1.115053684 2.67430055 
2.020116204 1.339886981 0.5822375492 
1.41090176 1.123241205 1.975103231 
1.941591866 1.40189082 1.118723553 
3.725551603 1.319308417 3.170106316 
1.117474915 1.941135056 1.402967353 
2.163171251 1.118918272 3.433114904 
1.331137598 3.690297359 2.033809468 
1.328335863 3.697831958 1.772113752 
2.034144196 1.649836361 3.665449833 
1.772874044 1.647633992 3.673889408 
3.310736471 2.689093027 0.7244518633 
0.5821377599 2.016270566 1.336298786 
3.455339757 2.13757212 1.086415104 
2.691418148 0.7504142883 3.289005903 
3.182563041 1.297597481 1.607360165 
1.922967731 2.875889258 2.373382778 
3.697886139 2.021761961 1.313415625 
1.619474292 3.176767232 1.292253358 
0.7632289914 3.279259337 2.690963255 
1.320033148 3.1699162 3.725776879 
2.361478248 1.905206218 2.85955829 
1.278489541 1.629054912 3.180155752 
3.697608443 1.780590729 1.317609068 
1.298224126 2.968917264 3.708249767 
1.119065986 3.427332019 2.162978873 
1.278233341 1.311267798 3.209083705 
1.300177108 3.194505093 1.275556284 
1.511090712 1.4255109 3.175609866 
0.6365130483 1.347388405 2.881989882 
1.426197935 3.178702785 1.527578559 
1.366331017 0.5855178965 1.818403871 
3.184289893 1.536180163 1.411811803 
1.676031976 2.763182758 1.912393719 
3.194613442 1.279575058 1.289447827 
2.785715039 1.923502945 1.637605206 
1.909751203 1.677769538 2.739289129 
0.5814575955 1.775119875 1.365174253 
2.73229099 1.289248775 0.8483545514 
0.8532623108 2.728409825 1.283484546 
1.777825377 1.360989545 0.5809783756 
3.228587565 2.365651299 2.54999601 
3.509828553 0.9940078492 2.816343398 
2.609934334 2.284260525 0.6256743 
2.290789516 0.6430904473 2.590541208 
1.937714881 3.666159339 2.645521209 
2.193496947 3.688378261 2.649962642 
1.876409369 2.551620847 1.524896861 
2.637093025 1.920880716 3.674489845 
2.637267628 2.179176641 3.702716537 
2.553533711 1.546377035 1.855818567 
2.244556412 3.371817481 0.6332312019 
2.289041877 0.5577685365 1.291307745 
1.521975759 1.879180474 2.525406819 
1.290041027 2.290403804 0.5564806222 
0.5850571874 1.313434428 2.102606302 
0.6433779678 2.585520967 2.291838107 
0.6283108391 2.253789277 3.386715724 
0.9961048108 2.824313801 3.507151017 
2.668492951 1.808081757 0.5807364043 
1.819338103 0.5826181189 2.675524147 
1.786932132 1.340859303 3.032468401 
1.343603096 3.035632091 1.803908388 
3.321548311 3.265370941 2.285952866 
1.363763011 1.978148599 1.119785092 
0.5871341769 2.665714343 1.800866794 
1.1273158 1.370173469 2.011587163 
3.061917227 1.800756774 1.3132081 
1.978889731 1.117945013 1.365421883 
2.467124407 2.578082854 0.8299775638 
1.199943561 2.242910244 0.9548667863 
2.246238536 0.9549048161 1.202525115 
0.8415069917 2.443785359 2.58986265 
1.649859922 0.3742510829 2.104082066 
1.653289763 0.3763427848 1.86622721 
2.828009047 1.185048182 1.726969823 
2.595580787 0.8358956375 2.441690695 
1.753060687 2.738405859 0.5515738859 
2.735104526 0.5515078472 1.74984456 
1.36328481 0.6603810234 2.868033868 
0.5585070194 1.766406338 2.725986657 
0.3773029208 1.852243129 1.661686052 
0.3779830852 2.093393821 1.632810585 
1.166555517 1.74581425 2.823131977 
2.394267059 2.889169953 2.362097096 
1.737256846 2.822134626 1.181086327 
2.297358926 2.411746531 2.901303788 
2.666413851 3.445093774 2.172831698 
1.857959343 1.661789562 0.3761148296 
2.100250171 1.640686999 0.3773740031 
0.5900128191 1.315937114 1.862422051 
1.312630914 1.825106309 0.5809598022 
2.812963451 2.06924534 0.7151924624 
1.13134639 2.064525424 0.6353732296 
1.823447577 0.5804922534 1.320587455 
2.064999025 0.6358855184 1.13360837 
2.209480291 2.712149219 0.5598200487 
2.744159893 1.885676 1.033605907 
2.073205143 0.7369422494 2.798550074 
0.5539099599 2.204649972 2.711419608 
2.64422132 2.743056422 1.657106109 
3.562651951 3.515055586 2.168069143 
2.951560807 1.058834074 2.010209167 
1.89318732 1.056232096 2.728828451 
1.056841148 2.724102555 1.892791945 
2.025793472 2.93766351 1.065896035 
1.044992184 2.032527139 2.941251551 
1.997154697 2.890393985 0.6299247843 
0.7384344516 2.790958816 2.074175097 
0.6259750822 2.004272264 2.899967088 
2.716412557 0.5488473667 2.202953578 
3.4672601 2.165535259 0.8848091726 
1.207964567 1.241483119 3.528302028 
1.900245846 0.3742510829 2.354585367 
2.160996389 0.3560421765 2.35180409 
1.231007231 3.513623009 1.205460507 
1.813536556 2.602054665 2.729422354 
3.164199182 2.16727365 0.5855557735 
0.910569218 3.444829138 2.171691229 
2.171265805 0.6085996345 3.15520551 
2.172130945 0.9005510248 3.452282466 
2.352055218 2.170557158 0.355516785 
2.748192905 1.819605592 2.588822202 
2.896122591 0.6182805507 1.988934428 
2.350285292 1.890500143 0.3773740031 
2.13761309 3.575406514 0.4289279381 
2.645664063 2.874718925 2.004832316 
3.513663751 1.211060304 1.219328531 
0.6838257918 1.157130944 3.077655369 
0.4301818152 2.14778654 3.587814474 
0.6125760464 3.141997644 2.172795226 
3.637557597 2.466375904 1.131636911 
3.649477941 2.494339042 0.9300309793 
1.204272536 2.830425534 0.4987570506 
0.355780936 2.344154022 2.164025474 
2.099672999 2.702547093 3.474159141 
0.3779830852 2.343655455 1.88294939 
2.872092186 2.511045222 0.384001754 
3.096549299 2.496999996 0.3821933723 
2.502942061 0.4002325985 3.084868951 
2.515954384 0.4015635047 2.852772552 
2.830551873 0.5001900118 1.201748713 
3.469691204 2.117239138 2.68083833 
1.102586693 1.117447279 3.147791431 
3.471526315 2.816926851 0.8610002139 
2.586295161 3.277744082 1.421754514 
1.811433644 3.543975305 3.523488659 
3.168844424 2.81813986 0.5614900183 
1.102664912 3.143173797 1.094986007 
2.800553136 1.222806341 0.5299411069 
0.5348556148 2.795190671 1.215179636 
0.4034249547 3.072417159 2.503931673 
0.4016916397 2.845207879 2.517393922 
3.454297051 2.744372766 1.306527335 
3.521104244 1.791488306 3.555862008 
2.818005106 0.5948792983 3.147001555 
2.729282259 2.804867551 0.5883050177 
2.854377633 3.329441653 1.977072809 
0.5987321529 3.137337583 2.81812623 
0.5105316831 0.5025110286 2.220605377 
2.820745655 0.594368695 2.70392204 
3.142553551 1.10025251 1.094264434 
0.5998206636 2.703472272 2.815418465 
2.729645382 3.481333115 1.71745125 
2.31545629 2.489391615 1.475560819 
1.489880433 2.296925287 2.473794546 
2.502045792 1.514406008 2.27614224 
3.603993789 3.556292068 1.616805245 
1.260411825 0.5481404226 1.284294321 
0.5524811657 1.246259852 1.291944844 
0.3773029208 1.602429718 1.911602162 
1.244545696 1.253669131 0.5441508022 
0.3723472892 1.599927032 2.151786412 
1.903675687 0.3763427848 1.615723909 
2.1681345 0.3675594293 1.600430496 
2.877627493 2.282872677 2.467968807 
1.600207762 2.177342341 0.3676249114 
2.808284042 3.47775534 1.235181044 
2.369001391 3.574162945 3.556913375 
1.608050741 1.911511333 0.3761148296 
2.947074264 1.106513199 0.8862309195 
3.552241136 2.345170499 3.582153578 
0.8896452291 2.945393695 1.099892743 
2.412574572 3.702195559 1.794233414 
2.407186135 3.694778419 2.054947975 
0.4228121902 2.37148003 0.4225463015 
2.034509065 2.409137757 3.693676525 
1.165663782 0.7055362321 3.072908985 
1.772585862 2.431863225 3.685189328 
3.696285635 1.800053502 2.420933806 
2.167177724 0.4850059295 0.7873117977 
3.698271802 2.073355304 2.376945529 
3.50161335 1.22995867 1.787108889 
3.224202812 0.47382995 2.117908496 
3.176102416 3.422039145 2.164648007 
3.471375252 3.12446268 2.161086306 
2.38081964 2.740525311 1.152104575 
2.166650398 0.7919137962 0.4882319409 
1.800777776 3.495885148 1.2222565 
3.323478132 3.304494852 2.682408622 
2.102111471 2.420687737 0.355516785 
1.850207739 2.427564295 0.3676249114 
1.146429485 2.357650753 2.744936289 
1.208399328 1.809996444 3.499374074 
2.418717862 0.3675594293 1.850933797 
2.411579751 0.3560421765 2.101300789 
0.3723472892 1.850163007 2.401858763 
2.702709115 0.6003898823 0.5990205241 
2.126966133 3.219725703 0.4840204989 
0.355780936 2.094314952 2.413875129 
0.5672153091 1.28009783 3.440167409 
1.265216015 3.434783197 0.5610830174 
3.527748559 0.7750889037 2.11590712 
0.4336562962 0.4306332978 1.661406984 
2.637238185 2.635907738 2.727176684 
2.764967271 1.161933927 2.350035521 
1.032317919 1.047662599 3.467009753 
0.5954918656 2.700254087 0.5948156011 
2.126480732 3.517013014 0.7869596402 
0.4231766659 1.615828842 0.4190265057 
3.438812008 0.5695675917 1.260865183 
0.781546499 2.136235802 3.530896145 
1.033495035 3.462291713 1.02489023 
3.611045617 0.3948138971 1.587287357 
1.61673593 0.4184530057 0.4242423268 
0.4806552381 2.133597913 3.230931859 
1.59253634 3.606009139 0.3888137179 
3.461603859 1.031737757 1.024145138 
1.082921587 2.943458141 0.8645675416 
0.3892416046 1.602218481 3.619581102 
3.426042163 3.380020569 1.296101891 
3.417206055 3.671723789 2.046764284 
3.712478892 3.374147325 2.043202583 
3.549016639 2.169242772 0.4783601034 
3.43684363 3.693273212 1.772253888 
2.664177337 3.379754932 0.6285788734 
2.165944052 0.4770863537 3.55857166 
3.379818985 0.631483041 2.648815038 
0.6374583072 2.654536999 3.376302323 
3.734183155 3.393834383 1.766449082 
0.489475853 3.547292512 2.165996761 
2.945347412 0.8679305174 1.081779281 
3.396241446 2.972853793 1.121256205 
0.6097668565 0.6070989405 1.339737472 
3.440876905 1.296952401 0.5943778426 
1.292303164 0.5967935344 3.434472682 
1.29284649 0.5949186484 0.6025728153 
0.5992872263 1.292294485 0.5973569941 
0.599696156 3.441244985 1.29014921 
2.93657759 2.991049768 0.6537574249 
3.01533641 1.040070766 0.5678174749 
0.5712385331 3.012174541 1.031587833 
3.419701361 0.2810247597 2.016255708 
1.936192897 3.68805274 3.363286346 
1.940541716 3.400117349 3.69118823 
3.439030732 0.26164543 1.744302142 
3.738363736 0.5684973714 1.740058147 
2.219050648 3.709810199 3.392192563 
2.215251712 3.40854753 3.695706729 
3.360930467 1.920604357 3.695397355 
2.999173605 0.6745001609 2.903628032 
2.020022811 3.423314736 0.2797172351 
3.38918122 2.198958726 3.717876236 
3.723247108 0.5822837134 2.014254331 
3.68508392 2.1949142 3.414054222 
2.01953741 3.720602047 0.5826563764 
0.5834174751 2.030233066 3.731994895 
0.6810332539 2.903842285 2.993552543 
1.014102899 3.01477675 0.5450739849 
0.5621116512 1.758189186 3.749662193 
1.748209597 3.738296894 0.5606728264 
3.68219778 1.919586376 3.410241534 
0.2825262142 2.027595176 3.432030609 
0.2628918274 1.754070996 3.446129938 
1.746273874 3.436222514 0.2615865649 
2.702580839 2.723186242 3.483199153 
1.152932986 1.152408877 0.9418130234 
1.161488209 0.9430395271 1.189144712 
0.9462023494 1.15743452 1.189126139 
2.70958467 2.994190118 1.333649865 
0.5913134344 1.769263005 0.2872309259 
0.3379476505 0.6273201565 2.086930828 
0.6346181869 0.332029283 2.086505223 
3.014834878 0.5489112196 1.012763616 
0.5996173335 0.2917387111 1.807691795 
2.687670666 3.392424411 3.376586967 
0.285827431 1.765084274 0.5873784557 
0.2960731169 0.5957329976 1.806545864 
1.057497812 0.5897902231 1.084768475 
0.5929751333 1.052085998 1.085538763 
1.768777079 0.5890209528 0.2867693321 
3.370910412 2.663431965 3.40182717 
2.046601702 0.2947968223 0.5964345491 
1.049963966 1.05154294 0.5880390072 
1.766827693 0.286357015 0.5918332397 
3.623094745 1.124421301 0.3910154414 
1.123542263 0.3884264983 3.613533903 
2.703451639 3.438693616 2.767945284 
0.4757954894 0.4712152658 2.839015023 
2.046074377 0.601704689 0.2973546923 
3.422855806 2.676866934 2.778154096 
0.3810555789 1.118186783 3.614682743 
1.112788566 3.618992146 0.3771340429 
2.832133094 0.4101807751 0.4081432755 
0.3905450643 3.623518381 1.120875034 