# vtk DataFile Version 3.0
MOAB 5.0.1
ASCII
DATASET UNSTRUCTURED_GRID
POINTS 234 double
0 0 0
4 0 0
0 4 0
4 4 0
0 0 4
4 0 4
0 4 4
4 4 4
1 0 4
2 0 4
3 0 4
4 0 3
4 0 2
4 0 1
3 0 0
2 0 0
1 0 0
0 0 1
0 0 2
0 0 3
0 1 4
0 2 4
0 3 4
1 4 4
2 4 4
3 4 4
4 4 3
4 4 2
4 4 1
3 4 0
2 4 0
1 4 0
0 4 1
0 4 2
0 4 3
0 3 0
0 2 0
0 1 0
4 1 4
4 2 4
4 3 4
4 1 0
4 2 0
4 3 0
2.000714068 2.000716988 4
0.9976943334 0.9980206692 4
3.002586166 0.9977809362 4
0.9981067348 3.002914665 4
3.003015514 3.002691879 4
2.000232292 0.9984029119 4
0.9984085756 2.00092552 4
2.000993356 3.002424797 4
3.002418404 2.000290822 4
0 1.982670864 2.005427087
0 2.990651721 1.004754587
0 0.9922028029 3.003210873
0 0.9916031266 1.000746564
0 2.992584477 3.00164249
0 1.989906842 1.002951613
0 2.990953379 2.003506833
0 0.9906531966 2.002616052
0 1.991597097 3.002905454
1.998674578 4 2
3.001748626 4 3.002408881
3.001748626 4 0.9975911186
0.9969472758 4 3.002408881
0.9969472758 4 0.9975911186
3.001174169 4 2
1.99884072 4 0.9979867958
1.99884072 4 3.002013204
0.997297024 4 2
1.998298005 2.019797945 0
2.996847348 1.010307455 0
3.000529107 3.009029785 0
0.9983520344 3.008802769 0
1.001032787 1.009533466 0
1.999238006 3.01087687 0
1.998872511 1.011101974 0
2.999012996 2.010354553 0
0.9992380993 2.009989058 0
1.998674578 0 2
3.001748626 0 3.002408881
3.001748626 0 0.9975911186
0.9969472758 0 3.002408881
0.9969472758 0 0.9975911186
3.001174169 0 2
1.99884072 0 0.9979867958
1.99884072 0 3.002013204
0.997297024 0 2
4 2.011370774 1.988632146
4 1.007207473 2.993118863
4 3.007076634 2.997731297
4 1.002018177 0.9931765938
4 3.005339533 0.9943368316
4 1.005521946 1.992648674
4 2.007612776 2.994904169
4 3.006711889 1.994719553
4 2.004562773 0.9933096455
2.166319888 2.181109085 2.11103803
1.412908864 1.412997216 1.415096065
1.278769428 1.277159388 2.72312671
1.273626784 2.723528336 1.277974227
2.723798764 1.276077191 1.273653778
1.150388127 2.948138642 2.516677619
3.029814469 2.47461141 1.08063006
2.517847089 1.148193083 2.954948471
3.035585442 3.001261422 2.47153489
3.222927035 1.762214094 2.085098956
2.113793105 3.199954969 1.743885001
1.676068406 2.104616596 3.168043305
2.101089156 0.9661077702 1.953483504
1.951897698 2.101890997 0.9666901843
0.9667453125 1.953836825 2.09941923
2.261369802 3.174354336 3.121930463
3.266957818 3.116550223 1.692871344
3.085677609 2.186906108 3.204203352
0.8508395931 0.836700447 1.808706645
1.677762138 0.8165978745 0.8194541842
0.8166186988 1.674177848 0.8193798907
3.218005804 0.7712207611 2.406611155
2.427773288 3.185643869 0.817213055
1.609709797 3.263164204 0.735795898
0.7925160956 2.424010947 3.195605003
0.7446389207 1.647644188 3.301938664
3.264221234 0.7357936714 1.595643052
1.675043605 0.8334681442 3.283755119
3.271128639 1.6901244 0.8134496048
0.8366043666 3.270906417 1.677096704
3.274677101 3.273045864 3.278694369
0.7812287929 3.250635074 3.260285061
0.7118948181 0.7115173957 3.28234523
3.288193497 3.294914006 0.7171865841
3.259092901 0.7785867993 3.25054362
3.311065565 0.6990147784 0.6943113003
0.7044422414 0.705862571 0.7133219538
0.6907187017 3.315096231 0.6890771982
0.7576310643 2.472043795 0.7554228433
2.482304086 0.7608364287 0.7635089944
0.4624150835 0.4841802307 3.735164914
3.497767169 0.5033949427 3.722045612
0.5019304832 3.506557638 3.726912702
3.531269923 3.509380704 3.729982177
1.399086994 0.5144677185 3.694302865
2.495400795 0.62213996 3.570426275
0.5053991086 1.384187036 3.696710108
0.5906224041 2.472362554 3.626040914
1.499803708 3.423690262 3.642822457
2.598643692 3.457410985 3.660896455
3.355625856 1.495220496 3.577386068
3.468628865 2.608637974 3.667301593
1.414481409 1.486799473 3.527514329
2.459562019 1.495608947 3.493756026
1.41256762 2.619694519 3.572714005
2.460260431 2.528792644 3.606662797
0.2683571846 0.4918814512 0.4900387128
0.2671822537 3.508256038 0.4882019545
0.2601879368 0.4834671994 3.517701611
0.2833274682 3.495193537 3.508302629
0.3334528746 0.5555783467 1.414860757
0.5009510089 0.6819269824 2.536400615
0.306928389 1.377042701 3.479675634
0.3854659361 2.471139419 3.423278316
0.3245376606 3.488940317 1.401639312
0.4633116915 3.357992138 2.493899749
0.3673457337 2.504096024 0.574576308
0.3266910253 1.396252405 0.5271823189
0.5451870285 2.447160751 1.42344441
0.5226438442 1.472547242 2.499683279
0.5424663709 1.482557986 1.538946278
0.4563784314 2.449155021 2.547748747
0.4693333157 3.728199008 0.4706981539
3.528068301 3.727163906 0.4700842894
0.5043612578 3.719885295 3.508969817
3.530347638 3.727698247 3.528739775
1.484561064 3.577856622 3.329201717
2.61599207 3.664886459 3.444826583
3.400692235 3.570344933 2.494185793
3.479242535 3.656542626 1.396144209
2.469599122 3.619243983 0.5968428119
1.38428787 3.690023374 0.508908612
0.5469238951 3.690036977 1.392783625
0.657987354 3.560271494 2.492990592
2.515102687 3.579158707 2.4759069
2.536656436 3.608827268 1.433048657
1.491974425 3.490283019 2.458141168
1.480767483 3.520421417 1.411358305
0.4698829228 0.4926771591 0.2713488074
3.51168197 0.4925735985 0.2673320968
0.4686209577 3.51045651 0.2694116437
3.510712786 3.50842709 0.2682008067
2.507662858 0.5791189074 0.369964585
1.398473669 0.5283839628 0.3276231443
2.471143441 3.419217868 0.3830730425
1.376147692 3.47084898 0.3105503616
0.5662719628 2.509780301 0.3601860548
0.5493969396 1.392885115 0.3295438131
3.490843527 1.403950524 0.3241006874
3.356840623 2.494004237 0.4481434289
2.45193247 1.429957079 0.5428058282
2.459012173 2.550185138 0.4553769556
1.451397247 2.577691366 0.5038094612
1.482769159 1.514367334 0.5377691339
0.4702276894 0.2732119289 0.4724268802
3.52899734 0.2725564802 0.4694853879
0.4639278749 0.2665980456 3.533301953
3.507777189 0.2833750587 3.509518615
1.383187239 0.3277208792 3.477487516
2.493331808 0.4527373107 3.380105248
3.41341004 0.3883053675 2.469379778
3.490727524 0.3107880484 1.381565514
2.509803952 0.3625894147 0.5682972165
1.390707913 0.3288301854 0.5498919788
0.550332717 0.3302543974 1.422060534
0.6903361306 0.4914166851 2.537314248
2.545381101 0.4580609357 2.451719652
2.573933544 0.5041299472 1.450251686
1.502378931 0.5308965612 2.46284476
1.516098293 0.5392633688 1.511425335
3.730340993 0.4912555007 0.4682823179
3.729250227 3.508959851 0.4691082744
3.721869182 0.5059988076 3.501043892
3.732550189 3.509058924 3.511352401
3.628767197 0.5878192362 2.468725599
3.689233709 0.5326738684 1.371940864
3.58295775 3.373327188 2.485219436
3.669774803 3.452075422 1.378205429
3.64311351 1.48382662 3.441858613
3.654658071 2.585137914 3.457109367
3.690469888 1.394719902 0.5456497778
3.568097294 2.492842453 0.6518473797
3.562215506 1.419016364 2.615099954
3.570160173 2.512223573 2.439146843
3.519305132 1.416304968 1.475044874
3.520415919 2.380989898 1.458271105
CELLS 0 0
CELL_TYPES 0
POINT_DATA 234
SCALARS GLOBAL_ID int 1
LOOKUP_TABLE default
0 
1 
2 
3 
4 
5 
6 
7 
8 
9 
10 
11 
12 
13 
14 
15 
16 
17 
18 
19 
20 
21 
22 
23 
24 
25 
26 
27 
28 
29 
30 
31 
32 
33 
34 
35 
36 
37 
38 
39 
40 
41 
42 
43 
44 
45 
46 
47 
48 
49 
50 
51 
52 
53 
54 
55 
56 
57 
58 
59 
60 
61 
62 
63 
64 
65 
66 
67 
68 
69 
70 
71 
72 
73 
74 
75 
76 
77 
78 
79 
80 
81 
82 
83 
84 
85 
86 
87 
88 
89 
90 
91 
92 
93 
94 
95 
96 
97 
98 
99 
100 
101 
102 
103 
104 
105 
106 
107 
108 
109 
110 
111 
112 
113 
114 
115 
116 
117 
118 
119 
120 
121 
122 
123 
124 
125 
126 
127 
128 
129 
130 
131 
132 
133 
134 
135 
136 
137 
138 
139 
140 
141 
142 
143 
144 
145 
146 
147 
148 
149 
150 
151 
152 
153 
154 
155 
156 
157 
158 
159 
160 
161 
162 
163 
164 
165 
166 
167 
168 
169 
170 
171 
172 
173 
174 
175 
176 
177 
178 
179 
180 
181 
182 
183 
184 
185 
186 
187 
188 
189 
190 
191 
192 
193 
194 
195 
196 
197 
198 
199 
200 
201 
202 
203 
204 
205 
206 
207 
208 
209 
210 
211 
212 
213 
214 
215 
216 
217 
218 
219 
220 
221 
222 
223 
224 
225 
226 
227 
228 
229 
230 
231 
232 
233 
SCALARS FLAGS int 1
LOOKUP_TABLE default
101 
101 
101 
101 
202 
202 
0 
0 
0 
0 
0 
0 
0 
0 
0 
0 
0 
0 
0 
0 
0 
0 
0 
0 
0 
0 
0 
0 
0 
0 
0 
0 
0 
0 
0 
0 
0 
0 
0 
0 
0 
0 
0 
0 
0 
0 
0 
0 
0 
0 
0 
0 
0 
0 
0 
0 
0 
0 
0 
0 
0 
0 
0 
0 
0 
0 
0 
0 
0 
0 
0 
0 
0 
0 
0 
0 
0 
0 
0 
0 
0 
0 
0 
0 
0 
0 
0 
0 
0 
0 
0 
0 
0 
0 
0 
0 
0 
0 
0 
0 
0 
0 
0 
0 
0 
0 
0 
0 
0 
0 
0 
0 
0 
0 
0 
0 
0 
0 
0 
0 
0 
0 
0 
0 
0 
0 
0 
0 
0 
0 
0 
0 
0 
0 
0 
0 
0 
0 
0 
0 
0 
0 
0 
0 
0 
0 
0 
0 
0 
0 
0 
0 
0 
0 
0 
0 
0 
0 
0 
0 
0 
0 
0 
0 
0 
0 
0 
0 
0 
0 
0 
0 
0 
0 
0 
0 
0 
0 
0 
0 
0 
0 
0 
0 
0 
0 
0 
0 
0 
0 
0 
0 
0 
0 
0 
0 
0 
0 
0 
0 
0 
0 
0 
0 
0 
0 
0 
0 
0 
0 
0 
0 
0 
0 
0 
0 
0 
0 
0 
0 
0 
0 
0 
0 
0 
0 
0 
0 
0 
0 
0 
0 
0 
0 
SCALARS MATERIAL int 1
LOOKUP_TABLE default
0 
0 
0 
0 
0 
0 
0 
0 
0 
0 
0 
0 
0 
0 
0 
0 
0 
0 
0 
0 
0 
0 
0 
0 
0 
0 
0 
0 
0 
0 
0 
0 
0 
0 
0 
0 
0 
0 
0 
0 
0 
0 
0 
0 
0 
0 
0 
0 
0 
0 
0 
0 
0 
0 
0 
0 
0 
0 
0 
0 
0 
0 
0 
0 
0 
0 
0 
0 
0 
0 
0 
0 
0 
0 
0 
0 
0 
0 
0 
0 
0 
0 
0 
0 
0 
0 
0 
0 
0 
0 
0 
0 
0 
0 
0 
0 
0 
0 
0 
0 
0 
0 
0 
0 
0 
0 
0 
0 
0 
0 
0 
0 
0 
0 
0 
0 
0 
0 
0 
0 
0 
0 
0 
0 
0 
0 
0 
0 
0 
0 
0 
0 
0 
0 
0 
0 
0 
0 
0 
0 
0 
0 
0 
0 
0 
0 
0 
0 
0 
0 
0 
0 
0 
0 
0 
0 
0 
0 
0 
0 
0 
0 
0 
0 
0 
0 
0 
0 
0 
0 
0 
0 
0 
0 
0 
0 
0 
0 
0 
0 
0 
0 
0 
0 
0 
0 
0 
0 
0 
0 
0 
0 
0 
0 
0 
0 
0 
0 
0 
0 
0 
0 
0 
0 
0 
0 
0 
0 
0 
0 
0 
0 
0 
0 
0 
0 
0 
0 
0 
0 
0 
0 
0 
0 
0 
0 
0 
0 
0 
0 
0 
0 
0 
0 
