# vtk DataFile Version 3.0
MOAB 5.0.1
ASCII
DATASET UNSTRUCTURED_GRID
POINTS 45 double
0 0.25 1
0.09435477687 0.3293194257 0.5460388006
0.09435477687 0.217635865 0.5298544278
0.08776253891 0.3361772771 0.5960506236
0 0.3350506824 0.5485531183
0 0.2233671216 0.5323687455
0.125 0.2500001492 1
0 0.3450380118 0.6614148387
0 0.2300253412 0.6492765592
0 0.2366835608 0.7661843728
0 0.3550253412 0.7742765592
0 0.2433417804 0.8830921864
0.1283476894 0.2843277197 0.6367131014
0.1283476894 0.1726441589 0.6205287286
0.04717738844 0.2763432737 0.5392037731
0.08776253891 0.1128101555 0.5636818781
0.04058515048 0.1715175642 0.5730312233
0.07454216077 0.1110824032 0.4771054357
0.02736477234 0.2814733727 0.5026391537
0.07454216077 0.3344495248 0.5094741813
0.04717738844 0.1646597129 0.5230194003
0.02736477234 0.1697898119 0.486454781
0.1217195492 0.2757421161 0.500124836
0.07454216077 0.222765964 0.4932898085
0.1217554514 0.1795020102 0.6705405516
0.08117030096 0.3696680068 0.8636937011
0.1217554514 0.3045020102 0.7955405516
0.08117030096 0.3563515676 0.7548780738
0.08117030096 0.3430351284 0.6460624466
0.08117030096 0.2446680068 0.8636937011
0.1544619855 0.3079673148 0.8223790133
0.1544619855 0.1829673148 0.8223790133
0.04058515048 0.3098340034 0.9318468505
0.07329168458 0.313299308 0.9586853123
0.07329168458 0.188299308 0.9586853123
0.04058515048 0.1848340034 0.9318468505
0.1138768351 0.2481333114 0.8905321628
0.04058515048 0.283201125 0.5892155961
0.08117030096 0.2313515676 0.6298780738
0.08776253891 0.2244937163 0.5798662508
0.08117030096 0.2446680068 0.7386937011
0.04058515048 0.1781757838 0.6899390369
0.04058515048 0.3031757838 0.8149390369
0.04058515048 0.2898593446 0.7061234097
0.04058515048 0.1781757838 0.8149390369
CELLS 0 0
CELL_TYPES 0
POINT_DATA 45
SCALARS GLOBAL_ID int 1
LOOKUP_TABLE default
127 
395 
396 
397 
486 
487 
550 
602 
603 
604 
605 
609 
1101 
1129 
1535 
1537 
1540 
3287 
3307 
3309 
3311 
3312 
3316 
3317 
4524 
4560 
4563 
4565 
4567 
4595 
4596 
4599 
4601 
4603 
4605 
4606 
4616 
4676 
4677 
4678 
4689 
4690 
4691 
4692 
4693 
SCALARS LOCAL_ID_L1 int 1
LOOKUP_TABLE default
0 
1 
2 
3 
4 
5 
6 
7 
8 
9 
10 
11 
12 
13 
14 
15 
16 
17 
18 
19 
20 
21 
22 
23 
24 
25 
26 
27 
28 
29 
30 
31 
32 
33 
34 
35 
36 
37 
38 
39 
40 
41 
42 
43 
44 
