# vtk DataFile Version 3.0
MOAB 5.0.1
ASCII
DATASET UNSTRUCTURED_GRID
POINTS 45 double
0 0.25 1
0.09435477687 0.3293194257 0.5460388006
0.09435477687 0.217635865 0.5298544278
0.08776253891 0.3361772771 0.5960506236
0 0.3350506824 0.5485531183
0 0.2233671216 0.5323687455
0.125 0.2500001492 1
0 0.3450380118 0.6614148387
0 0.2300253412 0.6492765592
0 0.2366835608 0.7661843728
0 0.3550253412 0.7742765592
0 0.2433417804 0.8830921864
0.1283476894 0.2843277197 0.6367131014
0.1283476894 0.1726441589 0.6205287286
0.04717738844 0.2763432737 0.5392037731
0.08776253891 0.1128101555 0.5636818781
0.04058515048 0.1715175642 0.5730312233
0.07454216077 0.1110824032 0.4771054357
0.02736477234 0.2814733727 0.5026391537
0.07454216077 0.3344495248 0.5094741813
0.04717738844 0.1646597129 0.5230194003
0.02736477234 0.1697898119 0.486454781
0.1217195492 0.2757421161 0.500124836
0.07454216077 0.222765964 0.4932898085
0.1217554514 0.1795020102 0.6705405516
0.08117030096 0.3696680068 0.8636937011
0.1217554514 0.3045020102 0.7955405516
0.08117030096 0.3563515676 0.7548780738
0.08117030096 0.3430351284 0.6460624466
0.08117030096 0.2446680068 0.8636937011
0.1544619855 0.3079673148 0.8223790133
0.1544619855 0.1829673148 0.8223790133
0.04058515048 0.3098340034 0.9318468505
0.07329168458 0.313299308 0.9586853123
0.07329168458 0.188299308 0.9586853123
0.04058515048 0.1848340034 0.9318468505
0.1138768351 0.2481333114 0.8905321628
0.04058515048 0.283201125 0.5892155961
0.08117030096 0.2313515676 0.6298780738
0.08776253891 0.2244937163 0.5798662508
0.08117030096 0.2446680068 0.7386937011
0.04058515048 0.1781757838 0.6899390369
0.04058515048 0.3031757838 0.8149390369
0.04058515048 0.2898593446 0.7061234097
0.04058515048 0.1781757838 0.8149390369
CELLS 168 674
3 0 34 35
3 0 6 34
3 11 0 35
3 0 32 33
3 34 0 36
3 0 33 36
3 34 36 33
3 34 33 0
3 36 0 32
3 36 32 33
3 0 36 35
3 34 35 36
3 0 32 35
3 36 35 32
3 33 0 6
3 33 6 34
3 0 32 11
3 35 11 32
3 1 14 19
3 1 22 2
3 1 23 2
3 22 2 23
3 22 23 1
3 1 14 2
3 23 2 14
3 23 14 1
3 1 19 23
3 22 23 19
3 22 19 1
3 14 19 23
3 1 3 14
3 2 39 1
3 39 3 1
3 1 14 39
3 2 39 14
3 3 14 39
3 22 17 2
3 17 2 23
3 17 23 22
3 14 2 17
3 14 23 17
3 15 2 14
3 15 39 2
3 14 15 39
3 12 28 3
3 28 37 3
3 37 14 3
3 28 38 12
3 3 12 38
3 3 38 28
3 3 39 13
3 13 38 3
3 39 13 38
3 39 38 3
3 28 37 38
3 3 38 37
3 39 37 14
3 39 3 37
3 37 39 38
3 4 5 14
3 5 18 14
3 4 14 18
3 4 18 5
3 37 5 14
3 37 14 4
3 37 4 5
3 37 7 4
3 8 5 37
3 7 8 37
3 5 20 21
3 14 5 20
3 14 20 21
3 14 21 5
3 5 18 21
3 14 21 18
3 5 16 20
3 14 5 16
3 14 16 20
3 37 5 16
3 37 16 14
3 5 16 8
3 37 8 16
3 43 7 37
3 43 7 8
3 43 8 37
3 43 10 7
3 9 8 43
3 10 9 43
3 41 9 8
3 41 8 43
3 41 43 9
3 37 43 41
3 37 41 8
3 41 8 16
3 41 16 37
3 9 42 43
3 41 43 42
3 41 42 9
3 44 9 41
3 44 41 42
3 44 42 9
3 42 43 10
3 42 10 9
3 9 11 42
3 44 42 11
3 44 11 9
3 35 44 11
3 32 42 11
3 32 11 44
3 32 44 42
3 32 35 44
3 18 19 14
3 23 21 14
3 23 18 19
3 23 14 18
3 18 23 21
3 14 16 39
3 39 37 16
3 39 16 38
3 37 16 38
3 38 16 41
3 38 37 41
3 26 40 29
3 29 35 31
3 35 29 44
3 44 40 41
3 29 40 44
3 38 40 24
3 27 38 24
3 24 40 27
3 38 40 27
3 40 38 41
3 26 29 25
3 30 32 29
3 40 25 26
3 40 29 25
3 40 25 42
3 40 42 27
3 29 25 42
3 29 42 40
3 32 42 29
3 28 38 43
3 27 43 38
3 27 43 42
3 27 42 41
3 27 41 43
3 41 40 42
3 27 40 41
3 41 43 38
3 41 38 27
3 28 37 43
3 38 43 37
3 36 35 31
3 36 31 29
3 36 29 35
3 36 30 29
3 29 35 32
3 29 32 36
3 30 32 36
3 40 44 42
3 44 29 42
3 44 29 32
3 30 36 33
3 33 32 30
3 34 31 35
3 31 36 34
4 4 5 8 7
4 7 8 9 10
CELL_TYPES 168
5
5
5
5
5
5
5
5
5
5
5
5
5
5
5
5
5
5
5
5
5
5
5
5
5
5
5
5
5
5
5
5
5
5
5
5
5
5
5
5
5
5
5
5
5
5
5
5
5
5
5
5
5
5
5
5
5
5
5
5
5
5
5
5
5
5
5
5
5
5
5
5
5
5
5
5
5
5
5
5
5
5
5
5
5
5
5
5
5
5
5
5
5
5
5
5
5
5
5
5
5
5
5
5
5
5
5
5
5
5
5
5
5
5
5
5
5
5
5
5
5
5
5
5
5
5
5
5
5
5
5
5
5
5
5
5
5
5
5
5
5
5
5
5
5
5
5
5
5
5
5
5
5
5
5
5
5
5
5
5
5
5
5
5
5
5
9
9
POINT_DATA 45
SCALARS GLOBAL_ID int 1
LOOKUP_TABLE default
127 
395 
396 
397 
486 
487 
550 
602 
603 
604 
605 
609 
1101 
1129 
1535 
1537 
1540 
3287 
3307 
3309 
3311 
3312 
3316 
3317 
4524 
4560 
4563 
4565 
4567 
4595 
4596 
4599 
4601 
4603 
4605 
4606 
4616 
4676 
4677 
4678 
4689 
4690 
4691 
4692 
4693 
SCALARS LOCAL_ID_L1 int 1
LOOKUP_TABLE default
0 
1 
2 
3 
4 
5 
6 
7 
8 
9 
10 
11 
12 
13 
14 
15 
16 
17 
18 
19 
20 
21 
22 
23 
24 
25 
26 
27 
28 
29 
30 
31 
32 
33 
34 
35 
36 
37 
38 
39 
40 
41 
42 
43 
44 
CELL_DATA 168
SCALARS GLOBAL_ID int 1
LOOKUP_TABLE default
5209 
5221 
5224 
5226 
5229 
5230 
5231 
5232 
5233 
5234 
5235 
5236 
5237 
5238 
5239 
5240 
5241 
5242 
13516 
13520 
13523 
13524 
13525 
13526 
13527 
13528 
13529 
13530 
13531 
13532 
13557 
13561 
13563 
13564 
13565 
13566 
13580 
13581 
13582 
13587 
13589 
13597 
13617 
13618 
13630 
13632 
13635 
13639 
13640 
13641 
13642 
13644 
13645 
13646 
13647 
13648 
13649 
13650 
13651 
15852 
15853 
15854 
15855 
15863 
15864 
15865 
15869 
15872 
15873 
15875 
15878 
15879 
15880 
15881 
15882 
15883 
15886 
15887 
15890 
15891 
15892 
15893 
17581 
17583 
17584 
17585 
17587 
17588 
17589 
17590 
17591 
17592 
17593 
17594 
17595 
17600 
17601 
17602 
17603 
17604 
17605 
17608 
17609 
17610 
17611 
17612 
17636 
17637 
17638 
17639 
17640 
33217 
33222 
33223 
33224 
33225 
33227 
33229 
33289 
33290 
33292 
33294 
52891 
52910 
52926 
52949 
52950 
52979 
52984 
52986 
52987 
53019 
53256 
53261 
53267 
53268 
53270 
53272 
53273 
53274 
53276 
53295 
53296 
53297 
53298 
53299 
53300 
53301 
53302 
53303 
53306 
53307 
53519 
53520 
53521 
53523 
53524 
53525 
53526 
53527 
53528 
53529 
53542 
53543 
53577 
53581 
56065 
56066 
SCALARS LOCAL_ID_L1 int 1
LOOKUP_TABLE default
0 
1 
2 
3 
4 
5 
6 
7 
8 
9 
10 
11 
12 
13 
14 
15 
16 
17 
18 
19 
20 
21 
22 
23 
24 
25 
26 
27 
28 
29 
30 
31 
32 
33 
34 
35 
36 
37 
38 
39 
40 
41 
42 
43 
44 
45 
46 
47 
48 
49 
50 
51 
52 
53 
54 
55 
56 
57 
58 
59 
60 
61 
62 
63 
64 
65 
66 
67 
68 
69 
70 
71 
72 
73 
74 
75 
76 
77 
78 
79 
80 
81 
82 
83 
84 
85 
86 
87 
88 
89 
90 
91 
92 
93 
94 
95 
96 
97 
98 
99 
100 
101 
102 
103 
104 
105 
106 
107 
108 
109 
110 
111 
112 
113 
114 
115 
116 
117 
118 
119 
120 
121 
122 
123 
124 
125 
126 
127 
128 
129 
130 
131 
132 
133 
134 
135 
136 
137 
138 
139 
140 
141 
142 
143 
144 
145 
146 
147 
148 
149 
150 
151 
152 
153 
154 
155 
156 
157 
158 
159 
160 
161 
162 
163 
164 
165 
166 
167 
