# vtk DataFile Version 3.0
MOAB 5.0.1
ASCII
DATASET UNSTRUCTURED_GRID
POINTS 66 double
0 0 0
1 0 0
0 1 0
1 1 0
0 0 1
1 0 1
0 1 1
1 1 1
0.5 0 1
1 0 0.5
0.5 0 0
0 0 0.5
0 0.5 1
0.5 1 1
1 1 0.5
0.5 1 0
0 1 0.5
0 0.5 0
1 0.5 1
1 0.5 0
0.5532675983 0.4352635691 1
0.4199347618 0.7645107395 1
0.6066264751 0.7127492974 1
0 0.5532657569 0.4352625089
0 0.4199333007 0.7645098983
0 0.6066250341 0.7127484678
0.4467324017 1 0.5647364309
0.5800652382 1 0.2354892605
0.3933735249 1 0.2872507026
0.4990234375 0.4990234375 0
0.4467324017 0 0.5647364309
0.5800652382 0 0.2354892605
0.3933735249 0 0.2872507026
1 0.4999994886 0.4999994886
0.2096445669 0.2332257716 0.8374998037
0.7964643796 0.2329222601 0.9259420613
0.1492398902 0.8005963002 0.8809379654
0.6133354839 0.8919887779 0.9052217701
0.8275954971 0.6432462211 0.8519680552
0.2284176926 0.6208272165 0.7880045547
0.1619645126 0.2437493443 0.2240145813
0.1204041595 0.8206649207 0.2425796558
0.06630543184 0.2153302855 0.8175383188
0.1027575109 0.6573988343 0.8831667047
0.134917978 0.8461060039 0.6525355517
0.1602553853 0.3074160489 0.6335925002
0.4229850641 0.8843002121 0.1069272373
0.1851094746 0.9433876143 0.3426095453
0.7930967323 0.9220611936 0.1651813472
0.2212895595 0.8455697726 0.7855247025
0.7390204073 0.8814747738 0.8432012262
0.7123256854 0.8100323211 0.3557934901
0.26293199 0.2196643411 0.09347027592
0.7543557497 0.2002157369 0.1687287926
0.2536238777 0.8014310353 0.1079635219
0.7245567987 0.7937772295 0.1659915876
0.3790181263 0.1206094008 0.10697931
0.1726748579 0.1422254552 0.338184673
0.7960467513 0.07762172668 0.1693295043
0.1482521512 0.158991069 0.7686461007
0.7614168267 0.2017702177 0.8002648032
0.6985663092 0.1897291983 0.3062951797
0.8405475301 0.1589334729 0.2374457893
0.8397900033 0.8381105795 0.2340770872
0.8596897768 0.3253569731 0.829346217
0.8088247139 0.7946788985 0.7368913222
CELLS 432 1760
3 52 56 10
3 56 0 10
3 52 10 0
3 52 0 56
3 40 52 17
3 52 0 17
3 40 17 0
3 40 0 52
3 57 40 0
3 57 0 52
3 57 52 40
3 57 11 0
3 40 0 11
3 40 11 57
3 57 0 32
3 0 56 32
3 57 32 56
3 57 56 0
3 56 52 57
3 23 11 40
3 17 23 40
3 10 29 52
3 29 17 52
3 31 10 56
3 32 31 56
3 30 32 57
3 11 30 57
3 10 53 1
3 53 58 1
3 10 1 58
3 10 58 53
3 19 53 62
3 53 1 62
3 19 62 1
3 19 1 53
3 58 9 62
3 9 1 62
3 58 62 1
3 58 1 9
3 53 58 62
3 19 29 53
3 29 10 53
3 10 31 58
3 31 9 58
3 9 33 62
3 33 19 62
3 28 2 54
3 2 46 54
3 28 54 46
3 28 46 2
3 46 54 15
3 54 2 15
3 46 15 2
3 54 17 2
3 17 41 2
3 54 2 41
3 54 41 17
3 2 41 16
3 41 47 16
3 2 16 47
3 2 47 41
3 28 41 54
3 28 2 41
3 28 2 47
3 28 47 41
3 23 17 41
3 16 23 41
3 15 27 46
3 27 28 46
3 28 26 47
3 26 16 47
3 17 29 54
3 29 15 54
3 3 48 55
3 48 15 55
3 3 55 15
3 3 15 48
3 3 63 19
3 63 55 19
3 3 19 55
3 3 55 63
3 14 48 63
3 48 3 63
3 14 63 3
3 14 3 48
3 48 55 63
3 14 27 48
3 27 15 48
3 15 29 55
3 29 19 55
3 33 14 63
3 19 33 63
3 4 59 8
3 59 34 8
3 4 8 34
3 4 34 59
3 12 4 34
3 4 42 34
3 12 34 42
3 12 42 4
3 11 4 42
3 4 59 42
3 11 42 59
3 11 59 4
3 59 42 34
3 12 20 34
3 20 8 34
3 11 24 42
3 24 12 42
3 30 11 59
3 8 30 59
3 35 18 64
3 18 5 64
3 35 64 5
3 35 5 18
3 8 35 60
3 35 5 60
3 8 60 5
3 8 5 35
3 5 60 9
3 60 64 9
3 5 9 64
3 5 64 60
3 35 64 60
3 20 18 35
3 8 20 35
3 9 30 60
3 30 8 60
3 18 33 64
3 33 9 64
3 25 6 36
3 6 43 36
3 25 36 43
3 25 43 6
3 36 6 12
3 6 43 12
3 36 12 43
3 36 49 13
3 49 6 13
3 36 13 6
3 36 6 49
3 16 44 6
3 44 49 6
3 16 6 49
3 16 49 44
3 49 25 44
3 25 6 44
3 49 6 25
3 49 36 25
3 13 21 36
3 21 12 36
3 12 24 43
3 24 25 43
3 23 16 44
3 25 23 44
3 16 26 49
3 26 13 49
3 7 22 50
3 22 37 50
3 7 50 37
3 7 37 22
3 37 7 13
3 7 50 13
3 37 13 50
3 18 7 38
3 7 65 38
3 18 38 65
3 18 65 7
3 50 7 14
3 7 65 14
3 50 14 65
3 50 65 7
3 65 22 50
3 65 7 22
3 7 22 38
3 22 65 38
3 22 21 37
3 21 13 37
3 20 22 38
3 18 20 38
3 13 26 50
3 26 14 50
3 14 33 65
3 33 18 65
3 30 34 8
3 59 34 30
3 8 20 60
3 35 60 20
3 30 34 20
3 30 20 8
3 30 20 60
3 60 64 33
3 60 33 9
3 9 30 61
3 30 33 61
3 9 61 33
3 9 33 30
3 30 60 33
3 62 31 9
3 62 58 31
3 9 61 62
3 33 62 61
3 31 9 61
3 31 61 62
3 32 30 61
3 31 32 61
3 29 56 10
3 29 52 56
3 53 31 58
3 10 31 53
3 56 53 29
3 56 10 53
3 53 56 31
3 23 11 57
3 23 57 40
3 23 11 45
3 11 57 45
3 23 45 57
3 30 11 45
3 11 59 45
3 30 45 59
3 30 57 45
3 42 45 24
3 11 24 45
3 11 45 42
3 45 42 59
3 23 25 45
3 25 24 45
3 12 20 39
3 20 24 39
3 12 39 24
3 12 24 20
3 20 34 24
3 12 24 34
3 21 12 39
3 12 43 39
3 21 39 43
3 21 43 12
3 21 43 36
3 39 24 43
3 24 34 42
3 21 22 39
3 22 20 39
3 26 37 13
3 26 50 37
3 26 21 13
3 37 21 26
3 49 21 13
3 26 21 49
3 49 21 36
3 26 65 50
3 26 14 65
3 27 63 14
3 27 48 63
3 33 14 51
3 14 63 51
3 33 51 63
3 27 63 51
3 27 51 14
3 33 26 51
3 26 14 51
3 33 14 26
3 33 65 26
3 26 28 51
3 28 27 51
3 46 29 15
3 46 54 29
3 15 55 27
3 48 27 55
3 29 27 46
3 29 15 27
3 29 55 27
3 16 23 47
3 23 41 47
3 26 49 44
3 26 44 16
3 23 47 44
3 16 44 47
3 26 44 47
3 17 29 23
3 29 54 23
3 17 23 54
3 54 41 23
3 40 52 29
3 40 29 17
3 29 23 40
3 20 18 64
3 20 64 35
3 33 38 65
3 18 38 33
3 33 64 38
3 18 38 64
3 20 38 64
3 53 62 33
3 53 33 19
3 63 55 33
3 55 19 33
3 29 53 33
3 29 33 19
3 29 33 55
3 60 20 33
3 20 64 33
3 60 64 20
3 26 39 22
3 26 22 20
3 26 20 39
3 30 20 33
3 30 45 20
3 45 34 20
3 30 34 45
3 45 24 20
3 45 34 24
3 39 20 45
3 39 45 24
3 20 38 33
3 65 20 22
3 38 20 65
3 20 65 33
3 26 22 65
3 26 65 20
3 26 33 20
3 45 26 20
3 45 39 26
3 33 20 45
3 33 45 26
3 30 45 33
3 49 26 39
3 26 21 39
3 49 39 21
3 26 21 22
3 26 37 22
3 39 36 21
3 43 36 39
3 49 39 36
3 26 22 50
3 29 26 33
3 26 23 33
3 29 33 23
3 29 23 26
3 23 39 45
3 25 45 39
3 25 39 23
3 26 28 23
3 29 23 28
3 29 28 26
3 54 23 28
3 54 28 29
3 41 23 28
3 47 23 28
3 26 47 23
3 26 44 23
3 39 44 25
3 23 44 39
3 44 39 26
3 23 26 39
3 57 29 23
3 57 40 29
3 45 23 26
3 33 45 23
3 29 45 23
3 33 45 29
3 57 29 45
3 25 24 39
3 25 43 39
3 34 42 45
3 49 25 39
3 49 39 44
3 36 39 25
3 29 51 33
3 26 51 29
3 29 28 51
3 29 51 27
3 55 27 51
3 55 51 29
3 29 28 27
3 63 27 55
3 63 51 55
3 28 46 29
3 30 29 61
3 29 33 61
3 30 33 29
3 55 51 33
3 29 53 61
3 33 61 53
3 32 29 61
3 32 30 29
3 29 57 52
3 29 32 57
3 29 57 30
3 45 29 30
3 56 29 32
3 56 57 29
3 32 29 53
3 32 53 61
3 56 53 32
3 45 59 34
3 31 62 53
3 62 53 61
3 31 61 53
3 53 31 32
4 12 4 8 20
4 5 18 20 8
4 12 21 13 6
4 21 22 7 13
4 7 22 20 18
4 22 21 12 20
4 0 11 23 17
4 2 17 23 16
4 11 4 12 24
4 24 12 6 25
4 6 16 23 25
4 25 23 11 24
4 27 15 2 28
4 26 28 2 16
4 14 3 15 27
4 26 16 6 13
4 14 26 13 7
4 28 26 14 27
4 0 10 29 17
4 19 29 10 1
4 17 29 15 2
4 15 29 19 3
4 31 10 0 32
4 30 32 0 11
4 9 1 10 31
4 30 11 4 8
4 9 30 8 5
4 32 30 9 31
4 33 9 1 19
4 3 14 33 19
4 33 18 5 9
4 18 33 14 7
CELL_TYPES 432
5
5
5
5
5
5
5
5
5
5
5
5
5
5
5
5
5
5
5
5
5
5
5
5
5
5
5
5
5
5
5
5
5
5
5
5
5
5
5
5
5
5
5
5
5
5
5
5
5
5
5
5
5
5
5
5
5
5
5
5
5
5
5
5
5
5
5
5
5
5
5
5
5
5
5
5
5
5
5
5
5
5
5
5
5
5
5
5
5
5
5
5
5
5
5
5
5
5
5
5
5
5
5
5
5
5
5
5
5
5
5
5
5
5
5
5
5
5
5
5
5
5
5
5
5
5
5
5
5
5
5
5
5
5
5
5
5
5
5
5
5
5
5
5
5
5
5
5
5
5
5
5
5
5
5
5
5
5
5
5
5
5
5
5
5
5
5
5
5
5
5
5
5
5
5
5
5
5
5
5
5
5
5
5
5
5
5
5
5
5
5
5
5
5
5
5
5
5
5
5
5
5
5
5
5
5
5
5
5
5
5
5
5
5
5
5
5
5
5
5
5
5
5
5
5
5
5
5
5
5
5
5
5
5
5
5
5
5
5
5
5
5
5
5
5
5
5
5
5
5
5
5
5
5
5
5
5
5
5
5
5
5
5
5
5
5
5
5
5
5
5
5
5
5
5
5
5
5
5
5
5
5
5
5
5
5
5
5
5
5
5
5
5
5
5
5
5
5
5
5
5
5
5
5
5
5
5
5
5
5
5
5
5
5
5
5
5
5
5
5
5
5
5
5
5
5
5
5
5
5
5
5
5
5
5
5
5
5
5
5
5
5
5
5
5
5
5
5
5
5
5
5
5
5
5
5
5
5
5
5
5
5
5
5
5
5
5
5
5
5
5
5
5
5
5
5
5
5
5
5
5
5
5
5
5
5
5
5
5
5
5
5
5
5
5
5
5
5
5
5
9
9
9
9
9
9
9
9
9
9
9
9
9
9
9
9
9
9
9
9
9
9
9
9
9
9
9
9
9
9
9
9
POINT_DATA 66
SCALARS GLOBAL_ID int 1
LOOKUP_TABLE default
0 
1 
2 
3 
4 
5 
6 
7 
8 
9 
10 
11 
12 
13 
14 
15 
16 
17 
18 
19 
20 
21 
22 
23 
24 
25 
26 
27 
28 
29 
30 
31 
32 
33 
34 
35 
36 
37 
38 
39 
40 
41 
42 
43 
44 
45 
46 
47 
48 
49 
50 
51 
52 
53 
54 
55 
56 
57 
58 
59 
60 
61 
62 
63 
64 
65 
SCALARS FLAGS int 1
LOOKUP_TABLE default
101 
101 
101 
101 
202 
202 
202 
202 
0 
0 
0 
0 
0 
0 
0 
0 
0 
0 
0 
0 
0 
0 
0 
0 
0 
0 
0 
0 
0 
0 
0 
0 
0 
0 
0 
0 
0 
0 
0 
0 
0 
0 
0 
0 
0 
0 
0 
0 
0 
0 
0 
0 
0 
0 
0 
0 
0 
0 
0 
0 
0 
0 
0 
0 
0 
0 
SCALARS BUNDA int 1
LOOKUP_TABLE default
0 
1 
2 
3 
4 
5 
6 
7 
8 
9 
10 
11 
12 
13 
14 
15 
16 
17 
18 
19 
20 
21 
22 
23 
24 
25 
26 
27 
28 
29 
30 
31 
32 
33 
0 
0 
0 
0 
0 
0 
0 
0 
0 
0 
0 
0 
0 
0 
0 
0 
0 
0 
0 
0 
0 
0 
0 
0 
0 
0 
0 
0 
0 
0 
0 
0 
CELL_DATA 432
SCALARS GLOBAL_ID int 1
LOOKUP_TABLE default
0 
1 
2 
3 
4 
5 
6 
7 
8 
9 
10 
11 
12 
13 
14 
15 
16 
17 
18 
19 
20 
21 
22 
23 
24 
25 
26 
27 
28 
29 
30 
31 
32 
33 
34 
35 
36 
37 
38 
39 
40 
41 
42 
43 
44 
45 
46 
47 
48 
49 
50 
51 
52 
53 
54 
55 
56 
57 
58 
59 
60 
61 
62 
63 
64 
65 
66 
67 
68 
69 
70 
71 
72 
73 
74 
75 
76 
77 
78 
79 
80 
81 
82 
83 
84 
85 
86 
87 
88 
89 
90 
91 
92 
93 
94 
95 
96 
97 
98 
99 
100 
101 
102 
103 
104 
105 
106 
107 
108 
109 
110 
111 
112 
113 
114 
115 
116 
117 
118 
119 
120 
121 
122 
123 
124 
125 
126 
127 
128 
129 
130 
131 
132 
133 
134 
135 
136 
137 
138 
139 
140 
141 
142 
143 
144 
145 
146 
147 
148 
149 
150 
151 
152 
153 
154 
155 
156 
157 
158 
159 
160 
161 
162 
163 
164 
165 
166 
167 
168 
169 
170 
171 
172 
173 
174 
175 
176 
177 
178 
179 
180 
181 
182 
183 
184 
185 
186 
187 
188 
189 
190 
191 
192 
193 
194 
195 
196 
197 
198 
199 
200 
201 
202 
203 
204 
205 
206 
207 
208 
209 
210 
211 
212 
213 
214 
215 
216 
217 
218 
219 
220 
221 
222 
223 
224 
225 
226 
227 
228 
229 
230 
231 
232 
233 
234 
235 
236 
237 
238 
239 
240 
241 
242 
243 
244 
245 
246 
247 
248 
249 
250 
251 
252 
253 
254 
255 
256 
257 
258 
259 
260 
261 
262 
263 
264 
265 
266 
267 
268 
269 
270 
271 
272 
273 
274 
275 
276 
277 
278 
279 
280 
281 
282 
283 
284 
285 
286 
287 
288 
289 
290 
291 
292 
293 
294 
295 
296 
297 
298 
299 
300 
301 
302 
303 
304 
305 
306 
307 
308 
309 
310 
311 
312 
313 
314 
315 
316 
317 
318 
319 
320 
321 
322 
323 
324 
325 
326 
327 
328 
329 
330 
331 
332 
333 
334 
335 
336 
337 
338 
339 
340 
341 
342 
343 
344 
345 
346 
347 
348 
349 
350 
351 
352 
353 
354 
355 
356 
357 
358 
359 
360 
361 
362 
363 
364 
365 
366 
367 
368 
369 
370 
371 
372 
373 
374 
375 
376 
377 
378 
379 
380 
381 
382 
383 
384 
385 
386 
387 
388 
389 
390 
391 
392 
393 
394 
395 
396 
397 
398 
399 
400 
401 
402 
403 
404 
405 
406 
407 
408 
409 
410 
411 
412 
413 
414 
415 
416 
417 
418 
419 
420 
421 
422 
423 
424 
425 
426 
427 
428 
429 
430 
431 
SCALARS FLAGS int 1
LOOKUP_TABLE default
0 
0 
0 
0 
0 
0 
0 
0 
0 
0 
0 
0 
0 
0 
0 
0 
0 
0 
0 
0 
0 
0 
0 
0 
0 
0 
0 
0 
0 
0 
0 
0 
0 
0 
0 
0 
0 
0 
0 
0 
0 
0 
0 
0 
0 
0 
0 
0 
0 
0 
0 
0 
0 
0 
0 
0 
0 
0 
0 
0 
0 
0 
0 
0 
0 
0 
0 
0 
0 
0 
0 
0 
0 
0 
0 
0 
0 
0 
0 
0 
0 
0 
0 
0 
0 
0 
0 
0 
0 
0 
0 
0 
0 
0 
0 
0 
0 
0 
0 
0 
0 
0 
0 
0 
0 
0 
0 
0 
0 
0 
0 
0 
0 
0 
0 
0 
0 
0 
0 
0 
0 
0 
0 
0 
0 
0 
0 
0 
0 
0 
0 
0 
0 
0 
0 
0 
0 
0 
0 
0 
0 
0 
0 
0 
0 
0 
0 
0 
0 
0 
0 
0 
0 
0 
0 
0 
0 
0 
0 
0 
0 
0 
0 
0 
0 
0 
0 
0 
0 
0 
0 
0 
0 
0 
0 
0 
0 
0 
0 
0 
0 
0 
0 
0 
0 
0 
0 
0 
0 
0 
0 
0 
0 
0 
0 
0 
0 
0 
0 
0 
0 
0 
0 
0 
0 
0 
0 
0 
0 
0 
0 
0 
0 
0 
0 
0 
0 
0 
0 
0 
0 
0 
0 
0 
0 
0 
0 
0 
0 
0 
0 
0 
0 
0 
0 
0 
0 
0 
0 
0 
0 
0 
0 
0 
0 
0 
0 
0 
0 
0 
0 
0 
0 
0 
0 
0 
0 
0 
0 
0 
0 
0 
0 
0 
0 
0 
0 
0 
0 
0 
0 
0 
0 
0 
0 
0 
0 
0 
0 
0 
0 
0 
0 
0 
0 
0 
0 
0 
0 
0 
0 
0 
0 
0 
0 
0 
0 
0 
0 
0 
0 
0 
0 
0 
0 
0 
0 
0 
0 
0 
0 
0 
0 
0 
0 
0 
0 
0 
0 
0 
0 
0 
0 
0 
0 
0 
0 
0 
0 
0 
0 
0 
0 
0 
0 
0 
0 
0 
0 
0 
0 
0 
0 
0 
0 
0 
0 
0 
0 
0 
0 
0 
0 
0 
0 
0 
0 
0 
0 
0 
0 
0 
0 
0 
0 
0 
0 
0 
0 
0 
0 
0 
0 
0 
0 
0 
0 
0 
0 
0 
0 
0 
0 
0 
0 
0 
0 
0 
0 
0 
0 
0 
0 
0 
0 
0 
0 
0 
0 
0 
201 
201 
201 
201 
201 
201 
201 
201 
201 
201 
201 
201 
201 
201 
201 
201 
201 
201 
202 
202 
202 
202 
202 
202 
202 
202 
202 
202 
202 
202 
202 
202 
SCALARS PARALLEL int 1
LOOKUP_TABLE default
0 
0 
0 
0 
0 
0 
0 
0 
0 
0 
0 
0 
0 
0 
0 
0 
0 
0 
0 
0 
0 
0 
0 
0 
0 
0 
0 
0 
0 
0 
0 
0 
0 
0 
0 
0 
0 
0 
0 
0 
0 
0 
0 
0 
0 
0 
0 
0 
0 
0 
0 
0 
0 
0 
0 
0 
0 
0 
0 
0 
0 
0 
0 
0 
0 
0 
0 
0 
0 
0 
0 
0 
0 
0 
0 
0 
0 
0 
0 
0 
0 
0 
0 
0 
0 
0 
0 
0 
0 
0 
0 
0 
0 
0 
0 
0 
0 
0 
0 
0 
0 
0 
0 
0 
0 
0 
0 
0 
0 
0 
0 
0 
0 
0 
0 
0 
0 
0 
0 
0 
0 
0 
0 
0 
0 
0 
0 
0 
0 
0 
0 
0 
0 
0 
0 
0 
0 
0 
0 
0 
0 
0 
0 
0 
0 
0 
0 
0 
0 
0 
0 
0 
0 
0 
0 
0 
0 
0 
0 
0 
0 
0 
0 
0 
0 
0 
0 
0 
0 
0 
0 
0 
0 
0 
0 
0 
0 
0 
0 
0 
0 
0 
0 
0 
0 
0 
0 
0 
0 
0 
0 
0 
0 
0 
0 
0 
0 
0 
0 
0 
0 
0 
0 
0 
0 
0 
0 
0 
0 
0 
0 
0 
0 
0 
0 
0 
0 
0 
0 
0 
0 
0 
0 
0 
0 
0 
0 
0 
0 
0 
0 
0 
0 
0 
0 
0 
0 
0 
0 
0 
0 
0 
0 
0 
0 
0 
0 
0 
0 
0 
0 
0 
0 
0 
0 
0 
0 
0 
0 
0 
0 
0 
0 
0 
0 
0 
0 
0 
0 
0 
0 
0 
0 
0 
0 
0 
0 
0 
0 
0 
0 
0 
0 
0 
0 
0 
0 
0 
0 
0 
0 
0 
0 
0 
0 
0 
0 
0 
0 
0 
0 
0 
0 
0 
0 
0 
0 
0 
0 
0 
0 
0 
0 
0 
0 
0 
0 
0 
0 
0 
0 
0 
0 
0 
0 
0 
0 
0 
0 
0 
0 
0 
0 
0 
0 
0 
0 
0 
0 
0 
0 
0 
0 
0 
0 
0 
0 
0 
0 
0 
0 
0 
0 
0 
0 
0 
0 
0 
0 
0 
0 
0 
0 
0 
0 
0 
0 
0 
0 
0 
0 
0 
0 
0 
0 
0 
0 
0 
0 
0 
0 
0 
0 
0 
0 
0 
0 
0 
0 
0 
0 
0 
0 
0 
0 
0 
0 
0 
0 
0 
0 
0 
0 
0 
0 
0 
1 
1 
0 
0 
0 
0 
1 
1 
1 
0 
0 
1 
1 
1 
1 
1 
1 
1 
1 
0 
0 
1 
1 
1 
0 
0 
VECTORS CENTER double
0.3806500388 0.1134245806 0.06681652865 
0.2930060421 0.04020313359 0.03565977001 
0.2543106633 0.07322144705 0.03115675864 
0.2139833721 0.1134245806 0.06681652865 
0.1416321675 0.3211378951 0.1058282857 
0.08764399668 0.2398881137 0.03115675864 
0.05398817086 0.2479164481 0.0746715271 
0.1416321675 0.1544712285 0.1058282857 
0.1115464568 0.1286582665 0.1873997515 
0.1452022826 0.1206299321 0.143884983 
0.1991904535 0.2018797136 0.2185565101 
0.05755828596 0.04740848507 0.279394891 
0.05398817086 0.08124978143 0.2413381938 
0.1115464568 0.1286582665 0.3540664181 
0.1886827943 0.04740848507 0.2084784585 
0.2574638838 0.04020313359 0.1314100042 
0.3150221697 0.08761161866 0.2441382286 
0.1838976614 0.08761161866 0.1483879944 
0.2715416581 0.1608330657 0.179544753 
0.05398817086 0.2656717004 0.3864256967 
0.05398817086 0.4323383671 0.2197590301 
0.4206518092 0.2395625929 0.03115675864 
0.2539851425 0.4062292595 0.03115675864 
0.4863611215 0.04020313359 0.1141561902 
0.4508189632 0.04020313359 0.2099064244 
0.3375935948 0.04740848507 0.3967239355 
0.2064690865 0.04740848507 0.467640368 
0.7514519166 0.06673857896 0.05624293085 
0.850134167 0.09261248785 0.112686099 
0.7653489171 0.02587390889 0.0564431681 
0.6834675003 0.09261248785 0.112686099 
0.8649677599 0.2863830699 0.1353915273 
0.8649677599 0.1197164032 0.1353915273 
0.9468491767 0.219644491 0.07914859643 
0.9181185832 0.2334052456 0.05624293085 
0.8788647605 0.07885173318 0.3022584312 
0.9468491767 0.05297782429 0.2458152631 
0.8788647605 0.07885173318 0.1355917645 
0.9320155838 0.02587390889 0.2231098348 
0.7969833437 0.1455903121 0.1918346954 
0.7511263957 0.3997463915 0.05624293085 
0.5844597291 0.2330797248 0.05624293085 
0.6253706632 0.02587390889 0.1349395883 
0.7920373299 0.02587390889 0.3016062549 
0.9468491767 0.2196443205 0.4124817593 
0.9468491767 0.3863109872 0.2458150926 
0.2156658009 0.9338103451 0.1317380748 
0.2255363139 0.8952437491 0.07163025305 
0.3566608223 0.8952437491 0.1673804873 
0.2721195297 0.961433404 0.1313926466 
0.3922029806 0.8952437491 0.07163025305 
0.2512079592 0.9338103451 0.03598784062 
0.307661688 0.961433404 0.03564241243 
0.08454129256 0.7671436784 0.03598784062 
0.04013471982 0.7735549736 0.08085988526 
0.1246760124 0.8740319853 0.1168477259 
0.1246760124 0.7073653187 0.1168477259 
0.04013471982 0.9402216402 0.2475265519 
0.101837878 0.921350845 0.3617297337 
0.0617031582 0.9811292048 0.2808698484 
0.101837878 0.921350845 0.195063067 
0.2558005207 0.8740319853 0.2125979601 
0.1712592281 0.9402216402 0.1766101195 
0.1928276665 0.9811292048 0.209953416 
0.2329623863 0.921350845 0.2908133012 
0.04013471982 0.6246435592 0.2259473882 
0.04013471982 0.7913102258 0.3926140549 
0.5010167675 0.961433404 0.1141388326 
0.4654746091 0.961433404 0.2098890668 
0.3417384671 0.9811292048 0.3981988929 
0.2106139588 0.9811292048 0.4691153254 
0.2508824384 0.6001514909 0.03598784062 
0.4175491051 0.7668181576 0.03598784062 
0.8392178437 0.9052794744 0.1103909783 
0.672551177 0.9052794744 0.1103909783 
0.7415189329 0.9312590765 0.05533052919 
0.7643655774 0.9740203979 0.05506044907 
0.9465966678 0.7793701932 0.07802569575 
0.8547822673 0.7106292697 0.1333562249 
0.9081855996 0.7645924098 0.05533052919 
0.8547822673 0.8772959364 0.1333562249 
0.8776289119 0.9200572577 0.2997528115 
0.8776289119 0.9200572577 0.1330861448 
0.9465966678 0.9460368598 0.2446923624 
0.9310322441 0.9740203979 0.2217271157 
0.7858145114 0.8513163342 0.188416674 
0.7910539902 0.9740203979 0.3002235359 
0.6243873235 0.9740203979 0.1335568693 
0.5745267454 0.764266889 0.05533052919 
0.7411934121 0.5976002223 0.05533052919 
0.9465966678 0.7793700227 0.4113588586 
0.9465966678 0.612703356 0.244692192 
0.2160840504 0.05299702299 0.9228820336 
0.2859655727 0.1307389468 0.8687153015 
0.236548189 0.07774192385 0.9458332679 
0.119298906 0.1307389468 0.8687153015 
0.06988152231 0.2444085905 0.9458332679 
0.09198333292 0.1495186857 0.8850127075 
0.09198333292 0.3161853523 0.8850127075 
0.02210181061 0.2384434285 0.9391794396 
0.02210181061 0.07177676182 0.7725127729 
0.07151919435 0.1247737848 0.8620614732 
0.07151919435 0.1247737848 0.6953948065 
0.04941738373 0.05299702299 0.7562153669 
0.1414007167 0.2025157087 0.8078947411 
0.2543040551 0.3894964469 0.9458332679 
0.4209707217 0.2228297802 0.9458332679 
0.02210181061 0.2117545287 0.6940160724 
0.02210181061 0.3784211954 0.860682739 
0.1983281843 0.05299702299 0.6111275105 
0.364994851 0.05299702299 0.7777941772 
0.8853847188 0.3527597444 0.9184294261 
0.9532299256 0.275118991 0.9431154057 
0.8853847188 0.1860930777 0.9184294261 
0.9321547932 0.24430742 0.9753140204 
0.6859604021 0.1448974926 0.9087356215 
0.8526270688 0.1448974926 0.9087356215 
0.7538056089 0.06725673922 0.9334216011 
0.7654881265 0.07764075337 0.9753140204 
0.9204722756 0.06725673922 0.7667549344 
0.8737022012 0.1757090636 0.7098703401 
0.9532299256 0.1084523244 0.776448739 
0.8737022012 0.1757090636 0.8765370067 
0.8058569944 0.253349817 0.8518510272 
0.7832439926 0.3893952764 0.9753140204 
0.616577326 0.2227286097 0.9753140204 
0.7360497428 0.06725673922 0.621667078 
0.5693830761 0.06725673922 0.7883337447 
0.9532299256 0.4417854872 0.7764485685 
0.9532299256 0.2751188206 0.6097819019 
0.04974663005 0.8024071114 0.8645621444 
0.08399913369 0.8193317115 0.9213682234 
0.08399913369 0.6882067229 0.8256177126 
0.03425250364 0.7546746228 0.8653050575 
0.04974663005 0.7668654334 0.9603126551 
0.03425250364 0.7191329448 0.9610555682 
0.08399913369 0.6526650448 0.9213682234 
0.2901764832 0.8820553576 0.8888208893 
0.2404298532 0.9485232575 0.9285082342 
0.2164132967 0.9335321001 0.9603126551 
0.1235098166 0.8820553576 0.8888208893 
0.04497265933 0.9487020013 0.7175118506 
0.1187358458 0.8972252588 0.8126867514 
0.0737631865 0.9485232575 0.7618415675 
0.1187358458 0.8972252588 0.6460200847 
0.1187358458 0.7661002702 0.7169362406 
0.04497265933 0.8175770127 0.7884280065 
0.0737631865 0.8173982689 0.8327577234 
0.1235098166 0.750930369 0.7930703786 
0.3563915506 0.8550356799 0.9603126551 
0.189724884 0.6883690132 0.9603126551 
0.03425250364 0.5257773784 0.8825588676 
0.03425250364 0.5613190564 0.7868083569 
0.04497265933 0.7997905869 0.5292660202 
0.04497265933 0.6686655983 0.6001821761 
0.2226739871 0.9485232575 0.6167537111 
0.3893406537 0.9485232575 0.7834203778 
0.7818822941 0.8647413571 0.9477337421 
0.6529941221 0.8287376164 0.9161409988 
0.7841186304 0.9244878506 0.9161409988 
0.7399873197 0.8682460251 0.9684072567 
0.7044451613 0.9639962593 0.9684072567 
0.7463401358 0.9604915913 0.9477337421 
0.6174519637 0.9244878506 0.9161409988 
0.9425318324 0.714415407 0.9506560184 
0.878806737 0.8126417065 0.8629531258 
0.878806737 0.6459750399 0.8629531258 
0.9362749046 0.7648929662 0.9122971074 
0.9130068024 0.9604915913 0.7810670754 
0.9362749046 0.9315596328 0.7456304407 
0.8492817071 0.8920512241 0.6933641828 
0.8492817071 0.8920512241 0.8600308495 
0.7181571988 0.7963009899 0.8600308495 
0.8051503963 0.8358093986 0.9122971074 
0.8114073241 0.7853318395 0.9506560184 
0.7476822287 0.7168914723 0.8629531258 
0.5466322403 0.7897496049 0.9684072567 
0.5110900819 0.8854998391 0.9684072567 
0.6624965235 0.5970863625 0.9506560184 
0.7936210318 0.5261699301 0.9506560184 
0.561917603 0.9604915913 0.8026458857 
0.7285842697 0.9604915913 0.635979219 
0.9362749046 0.7648927957 0.5789636036 
0.9362749046 0.598226129 0.7456302703 
0.3854589895 0.07774192385 0.8007454115 
0.2682097066 0.1307389468 0.7236274451 
0.6048948083 0.2123445956 0.9334216011 
0.7037162682 0.289985349 0.9087356215 
0.4032148556 0.2228297802 0.8007454115 
0.5 0.1450878564 0.8549121436 
0.5871389422 0.2123445956 0.7883337447 
0.8737022012 0.3423755598 0.7098701696 
0.9204722756 0.2339232354 0.6000880973 
0.7150995703 0.06324306611 0.4570105369 
0.7150995703 0.2299095623 0.4570103664 
0.8995221031 0.2299095623 0.4354315561 
0.8155774672 0.1666664962 0.5215786398 
0.7360497428 0.2339232354 0.6216669076 
0.8068709228 0.05297782429 0.3243116833 
0.7388865065 0.07885173318 0.2140881847 
0.8463712798 0.1162208904 0.3479136563 
0.8463712798 0.2828873866 0.3479134859 
0.7595438492 0.06324306611 0.3472614801 
0.7063930258 0.1162208904 0.2597434098 
0.5128907453 0.06324306611 0.3860941044 
0.5573350241 0.06324306611 0.2763450476 
0.4593471879 0.2065442794 0.03565977001 
0.380324518 0.2797657265 0.06681652865 
0.7101559131 0.09261248785 0.1911825191 
0.6114736626 0.06673857896 0.134739351 
0.5441324378 0.2732828584 0.09190270086 
0.5444579587 0.1069417125 0.09190270086 
0.5711463714 0.1069417125 0.170399121 
0.05755828596 0.231830404 0.424482394 
0.1115464568 0.3130801855 0.3324872544 
0.05341846178 0.2868939352 0.5229516697 
0.1109767477 0.1498805014 0.4905923911 
0.1109767477 0.3343024203 0.4690132274 
0.2023292623 0.1024720163 0.5661096437 
0.1028358455 0.1554690393 0.6340795336 
0.2517466461 0.1554690393 0.6556583439 
0.2598875483 0.1498805014 0.5121712014 
0.0755202724 0.314226545 0.7385469058 
0.05341846178 0.2424497832 0.6327007995 
0.0755202724 0.1742487781 0.6503769397 
0.1249376561 0.2272458011 0.7399256399 
0.05341846178 0.4891022799 0.5938678256 
0.05341846178 0.4446581279 0.7036169554 
0.2605617636 0.5186969285 0.9293348516 
0.2605617636 0.4920080288 0.850838151 
0.07613923088 0.5135868391 0.850838151 
0.1844225328 0.45173229 0.9215032994 
0.2543040551 0.3628075471 0.8673365673 
0.06988152231 0.3843863574 0.8673365673 
0.2161174848 0.6284459853 0.9293348516 
0.1103917345 0.5927420169 0.8903904198 
0.2503699884 0.6809122634 0.8903904198 
0.1742307576 0.6406365246 0.9610555682 
0.2239773876 0.7408352913 0.9213682234 
0.1103917345 0.5660531172 0.8118937192 
0.09198333292 0.2894964526 0.8065160069 
0.4183263098 0.6993624178 0.9293348516 
0.4627705887 0.589613361 0.9293348516 
0.5200226285 0.9639962593 0.8233194003 
0.5996960976 0.9244878506 0.7710531424 
0.4555557212 0.9215035798 0.8549121436 
0.4933342158 0.8854998391 0.8233194003 
0.3804081071 0.8700268374 0.9285082342 
0.362652241 0.8700268374 0.7834203778 
0.2634880705 0.8035589374 0.8888208893 
0.6648591743 0.8920512241 0.7149429931 
0.7518523719 0.9315596328 0.6005425844 
0.8066184138 0.9460368598 0.3231887826 
0.737650658 0.9200572577 0.211582565 
0.9041085618 0.7700106033 0.4519309929 
0.8507052296 0.8827143002 0.3632901924 
0.8507052296 0.7160474631 0.363290022 
0.7107269756 0.8827143002 0.275119946 
0.7641303079 0.9366774404 0.3637609169 
0.719686029 0.7700106033 0.4735098032 
0.719686029 0.9366774404 0.4735099737 
0.8155774672 0.8333331629 0.5215786398 
0.7518523719 0.7648927957 0.6005424139 
0.517477204 0.9366774404 0.4025935412 
0.5619214828 0.9366774404 0.2928444844 
0.4740028339 0.7944412165 0.03564241243 
0.3918774598 0.7282515616 0.07163025305 
0.601540679 0.9312590765 0.1338269494 
0.6992395898 0.9052794744 0.1888873984 
0.5006912466 0.7944412165 0.1141388326 
0.5263628919 0.8330078125 0.07849642018 
0.6012151581 0.764266889 0.1338269494 
0.0617031582 0.8322177904 0.4259573514 
0.101837878 0.7724394306 0.34015057 
0.2676466464 0.8972252588 0.667598895 
0.1938834599 0.9487020013 0.5724239942 
0.1066758175 0.7809197917 0.4768025353 
0.1066758175 0.9298312061 0.498381699 
0.2555866181 0.9298312061 0.5199605093 
0.1663411458 0.5174297315 0.145087503 
0.2508824384 0.6179067432 0.1810753436 
0.08454129256 0.6182322641 0.1810753436 
0.1246760124 0.7251205709 0.2619352289 
0.3079733134 0.3208123743 0.1058282857 
0.2203293167 0.4142575939 0.0746715271 
0.2203293167 0.4320128462 0.2197590301 
0.804319125 0.4202068474 0.9431154057 
0.7364739183 0.3311809341 0.9184294261 
0.878806737 0.6459748694 0.6962862887 
0.9425318324 0.5477485699 0.7839891813 
0.895761758 0.4895342276 0.7271045869 
0.895761758 0.4895343981 0.8937714241 
0.7468509574 0.4679555878 0.8937714241 
0.8649677599 0.2863828994 0.3020580235 
0.9181185832 0.4000717418 0.2229094271 
0.8547822673 0.7106290992 0.3000227211 
0.9081855996 0.5979255727 0.2219970254 
0.7511263957 0.399746221 0.2229094271 
0.8330078125 0.4996743087 0.1666664962 
0.7411934121 0.5976000519 0.2219970254 
0.771561475 0.3790110918 0.7667547639 
0.804319125 0.420206677 0.7764485685 
0.7247914006 0.32079692 0.8765370067 
0.4272588565 0.777858838 0.7842469952 
0.5355421584 0.7160042888 0.8549121436 
0.4094725642 0.6853635952 0.7842469952 
0.6666666667 0.3117543526 0.6882453065 
0.3867517951 0.2475598727 0.7327763104 
0.3077225169 0.3253017965 0.8236974346 
0.2722107847 0.1802139401 0.6786095783 
0.2378409945 0.3875376396 0.7993674662 
0.1232999841 0.3201917071 0.7452007341 
0.3139802254 0.4545022782 0.8071990183 
0.1295576927 0.4493921887 0.7287023177 
0.7936210318 0.5261697596 0.7839891813 
0.6562395958 0.6475639217 0.9122971074 
0.7298959364 0.6243962296 0.8629531258 
0.7873641041 0.5766473188 0.7456302703 
0.6207278636 0.8358093986 0.767209251 
0.6029415713 0.7433141559 0.767209251 
0.6666666667 0.6450876859 0.6882453065 
0.3867517951 0.580893206 0.7327763104 
0.2784684932 0.6427477551 0.6621111619 
0.5711743279 0.4142263689 0.7111973296 
0.5356625957 0.6024718458 0.5661094732 
0.5356625957 0.2691385125 0.5661094732 
0.2988132179 0.8221323297 0.7127552294 
0.3650282854 0.795112652 0.7842469952 
0.2898806713 0.7436359095 0.8578430857 
0.4910978795 0.8257533456 0.8549121436 
0.5555647869 0.8682460251 0.8233194003 
0.2658641149 0.728644752 0.8896475067 
0.1601383646 0.6929407836 0.850703075 
0.1996490474 0.7556644297 0.8181557409 
0.5974597614 0.8647413571 0.8026458857 
0.6485852797 0.6663409754 0.3549119732 
0.4822441339 0.6844217485 0.4999994761 
0.4996744792 0.517429561 0.3117539992 
0.3152519464 0.6840963981 0.3333329799 
0.1295576927 0.4938363407 0.618953188 
0.1295576927 0.5116227665 0.7114485076 
0.07613923088 0.5935726691 0.6453385105 
0.2800353089 0.8510885856 0.4290832141 
0.2974656541 0.6840963981 0.2408377372 
0.4463764547 0.8330078125 0.2839957112 
0.2156658009 0.7848989307 0.2768255778 
0.3820069467 0.7668181576 0.1317380748 
0.1712592281 0.7913102258 0.3216976224 
0.1928276665 0.8322177904 0.3550409189 
0.2106139588 0.8322177904 0.4475361617 
0.1938834599 0.7997905869 0.5508448305 
0.1211118902 0.6911860848 0.7177628581 
0.1211118902 0.6733996591 0.6252675385 
0.2700226908 0.8223110735 0.6684255124 
0.2250500314 0.7246976578 0.5960011648 
0.2238994318 0.3981715499 0.2578157273 
0.2778876027 0.2949994123 0.1873997515 
0.2023292623 0.6202272686 0.54453048 
0.3867517951 0.4535604314 0.5229514992 
0.2197596076 0.4532350811 0.356285003 
0.5530929409 0.4354796583 0.3778639963 
0.2773178936 0.3162216472 0.3239257244 
0.07613923088 0.5491285171 0.7550876403 
0.1103917345 0.628283695 0.7946399091 
0.1454017947 0.251990702 0.7628768742 
0.1499024174 0.6910073411 0.762092575 
0.1948750767 0.770834331 0.742021603 
0.1258858609 0.6760161836 0.793896996 
0.7371163743 0.6030184158 0.2852643262 
0.5526938415 0.7696852529 0.306843307 
0.5349075493 0.7696852529 0.2143480642 
0.5971381204 0.7696852529 0.1970942502 
0.6723159074 0.8679365169 0.2524247794 
0.6453019739 0.7009443294 0.1739283592 
0.4908207336 0.8330078125 0.1742466544 
0.7148040134 0.8772959364 0.2118526451 
0.7588908291 0.8139733767 0.251954055 
0.4384606755 0.7944412165 0.1313926466 
0.5481073828 0.2295842119 0.2903438702 
0.7325299156 0.3962507081 0.2687648894 
0.6485852797 0.333007642 0.3549119732 
0.8122941614 0.7012696798 0.3405948554 
0.6506484988 0.2963227909 0.1583413241 
0.8176406863 0.2966481413 0.3250078203 
0.5303210906 0.2295842119 0.1978486274 
0.4463764547 0.1663411458 0.2839957112 
0.3115434285 0.286971078 0.143884983 
0.3550239401 0.2137496309 0.2084784585 
0.3728102324 0.2137496309 0.3009737013 
0.3686704082 0.2688131621 0.399442977 
0.4238050296 0.2065442794 0.1314100042 
0.3502388072 0.2539527645 0.1483879944 
0.5489175707 0.2330797248 0.1519931651 
0.6154318613 0.1299816451 0.2540915583 
0.5089158003 0.1069417125 0.1876529351 
0.1727173678 0.2332109631 0.7465794682 
0.724989506 0.1197164032 0.2138879475 
0.764489863 0.1829594693 0.2374899205 
0.6776624324 0.1299816451 0.2368377443 
0.5759315043 0.06673857896 0.2304895852 
0.2633168996 0.2338158923 1 
0.7633168996 0.2338158923 1 
0.2299836904 0.8161276849 1 
0.6316403092 0.8693150092 1 
0.7899735183 0.6620032166 1 
0.3949572088 0.6031309015 1 
0 0.2633164392 0.2338156272 
0 0.7633164392 0.2338156272 
0 0.2299833252 0.8161274746 
0 0.6316395837 0.8693145915 
0 0.7899726977 0.6620027442 
0 0.3949560229 0.6031302187 
0.3683596908 1 0.1306849908 
0.2100264817 1 0.3379967834 
0.7700163096 1 0.1838723151 
0.2366831004 1 0.7661841077 
0.7366831004 1 0.7661841077 
0.6050427912 1 0.3968690985 
0.2497558594 0.2497558594 0 
0.7497558594 0.2497558594 0 
0.2497558594 0.7497558594 0 
0.7497558594 0.7497558594 0 
0.3683596908 0 0.1306849908 
0.2100264817 0 0.3379967834 
0.7700163096 0 0.1838723151 
0.2366831004 0 0.7661841077 
0.7366831004 0 0.7661841077 
0.6050427912 0 0.3968690985 