# vtk DataFile Version 3.0
MOAB 5.0.1
ASCII
DATASET UNSTRUCTURED_GRID
POINTS 51 double
0 0 0
2 0 0
0 2 0
2 2 0
0 0 2
2 0 2
0 2 2
2 2 2
1 0 2
2 0 1
1 0 0
0 0 1
0 1 2
1 2 2
2 2 1
1 2 0
0 2 1
0 1 0
2 1 2
2 1 0
1 1 2
1.5 0.5 2
0.5 1.5 2
0.5 0.5 2
1.5 1.5 2
0 1 1
0 0.5 1.5
0 1.5 0.5
0 0.5 0.5
0 1.5 1.5
1 2 1
1.5 2 0.5
1.5 2 1.5
0.5 2 1.5
0.5 2 0.5
1 1 0
0.5 1.5 0
1.5 1.5 0
1.5 0.5 0
0.5 0.5 0
1 0 1
1.5 0 0.5
1.5 0 1.5
0.5 0 0.5
0.5 0 1.5
2 1 1
2 1.5 1.5
2 0.5 1.5
2 0.5 0.5
2 1.5 0.5
1.131443299 0.8788659794 1.121134021
CELLS 306 1224
3 8 23 4
3 23 12 4
3 21 8 5
3 18 21 5
3 12 22 6
3 22 13 6
3 13 24 7
3 24 18 7
3 21 20 8
3 20 23 8
3 20 22 12
3 23 20 12
3 13 22 24
3 20 21 18
3 24 20 18
3 24 22 20
3 11 28 0
3 28 17 0
3 27 16 2
3 17 27 2
3 26 11 4
3 12 26 4
3 29 12 6
3 16 29 6
3 26 25 11
3 25 28 11
3 26 12 29
3 27 25 16
3 25 29 16
3 27 17 25
3 25 17 28
3 26 29 25
3 34 15 2
3 16 34 2
3 31 14 3
3 15 31 3
3 13 33 6
3 33 16 6
3 32 13 7
3 14 32 7
3 32 30 13
3 13 30 33
3 31 30 14
3 30 32 14
3 31 15 34
3 33 30 16
3 30 34 16
3 31 34 30
3 0 10 39
3 0 39 17
3 1 38 10
3 1 19 38
3 2 36 15
3 2 17 36
3 3 15 37
3 3 37 19
3 35 10 38
3 39 10 35
3 15 36 35
3 15 35 37
3 17 35 36
3 17 39 35
3 19 37 35
3 38 19 35
3 0 43 10
3 0 11 43
3 1 41 9
3 1 10 41
3 4 8 44
3 4 44 11
3 5 42 8
3 5 9 42
3 8 42 40
3 44 8 40
3 9 41 40
3 9 40 42
3 43 41 10
3 11 40 43
3 11 44 40
3 40 41 43
3 48 9 1
3 19 48 1
3 14 49 3
3 49 19 3
3 9 47 5
3 47 18 5
3 46 14 7
3 18 46 7
3 45 47 9
3 45 9 48
3 46 45 14
3 45 49 14
3 45 46 18
3 45 18 47
3 45 48 19
3 49 45 19
3 39 17 28
3 39 28 0
3 39 43 10
3 0 43 39
3 0 28 43
3 11 43 28
3 39 28 43
3 38 1 48
3 38 48 19
3 48 1 41
3 48 41 9
3 38 41 1
3 10 41 38
3 38 41 48
3 36 2 27
3 36 27 17
3 34 36 15
3 34 2 36
3 34 16 27
3 34 27 2
3 36 34 27
3 49 37 19
3 3 37 49
3 3 49 31
3 14 31 49
3 37 3 31
3 37 31 15
3 49 31 37
3 8 44 23
3 4 23 44
3 4 44 26
3 11 26 44
3 23 4 26
3 23 26 12
3 44 26 23
3 5 42 21
3 8 21 42
3 5 21 47
3 21 18 47
3 42 5 47
3 42 47 9
3 42 21 47
3 16 33 29
3 33 6 29
3 22 33 13
3 22 6 33
3 22 12 29
3 22 29 6
3 33 22 29
3 32 14 46
3 32 46 7
3 7 46 24
3 18 24 46
3 13 32 24
3 32 7 24
3 32 46 24
3 8 44 50
3 44 23 50
3 8 50 23
3 42 8 50
3 8 21 50
3 42 50 21
3 8 20 50
3 20 21 50
3 8 40 50
3 40 44 50
3 42 40 50
3 23 20 50
3 42 47 50
3 47 9 50
3 42 50 9
3 48 41 50
3 41 9 50
3 48 50 9
3 9 40 50
3 9 45 50
3 48 50 45
3 45 50 47
3 40 50 41
3 43 38 10
3 41 38 43
3 35 43 38
3 10 43 35
3 35 39 43
3 25 44 28
3 11 28 44
3 11 44 25
3 11 28 40
3 28 44 40
3 25 26 44
3 28 40 43
3 29 23 26
3 29 12 23
3 20 23 29
3 20 29 12
3 20 29 22
3 22 33 24
3 33 13 24
3 13 24 30
3 33 30 24
3 32 24 30
3 46 30 14
3 46 32 30
3 30 45 46
3 30 14 45
3 45 30 31
3 45 31 14
3 31 49 45
3 31 34 37
3 34 15 37
3 37 34 35
3 34 15 35
3 34 36 35
3 34 25 27
3 34 16 25
3 33 25 30
3 16 30 25
3 16 25 33
3 33 29 25
3 25 34 30
3 36 28 17
3 36 17 25
3 36 25 28
3 35 28 39
3 35 17 28
3 36 28 35
3 36 27 25
3 21 18 50
3 18 47 50
3 21 50 47
3 24 46 50
3 46 18 50
3 24 50 18
3 20 18 50
3 45 18 50
3 45 50 46
3 24 50 20
3 19 35 48
3 35 38 48
3 45 19 35
3 45 35 48
3 45 37 35
3 19 37 45
3 37 45 49
3 33 30 50
3 30 20 50
3 33 50 20
3 33 20 30
3 25 20 50
3 25 50 23
3 25 23 20
3 24 20 30
3 33 20 24
3 22 33 20
3 29 20 25
3 29 25 23
3 29 20 50
3 29 50 25
3 24 50 30
3 20 29 33
3 29 33 50
3 23 26 50
3 26 25 50
3 23 25 26
3 44 26 50
3 30 32 50
3 32 24 50
3 46 50 32
3 36 34 25
3 35 25 36
3 34 25 35
3 25 30 50
3 25 50 33
3 35 25 50
3 25 28 50
3 35 50 28
3 35 28 25
3 30 50 35
3 30 35 25
3 35 34 30
3 28 25 40
3 25 44 40
3 25 40 50
3 28 50 40
3 25 50 44
3 35 28 43
3 40 43 35
3 40 35 28
3 40 35 50
3 37 31 50
3 31 30 50
3 37 50 30
3 37 30 31
3 35 37 50
3 30 37 35
3 46 50 30
3 30 45 50
3 34 37 30
3 31 45 50
3 37 45 50
3 37 31 45
3 38 48 50
3 48 35 50
3 38 50 35
3 38 50 40
3 38 40 35
3 35 50 45
3 43 38 40
3 41 38 50
3 40 38 41
CELL_TYPES 306
5
5
5
5
5
5
5
5
5
5
5
5
5
5
5
5
5
5
5
5
5
5
5
5
5
5
5
5
5
5
5
5
5
5
5
5
5
5
5
5
5
5
5
5
5
5
5
5
5
5
5
5
5
5
5
5
5
5
5
5
5
5
5
5
5
5
5
5
5
5
5
5
5
5
5
5
5
5
5
5
5
5
5
5
5
5
5
5
5
5
5
5
5
5
5
5
5
5
5
5
5
5
5
5
5
5
5
5
5
5
5
5
5
5
5
5
5
5
5
5
5
5
5
5
5
5
5
5
5
5
5
5
5
5
5
5
5
5
5
5
5
5
5
5
5
5
5
5
5
5
5
5
5
5
5
5
5
5
5
5
5
5
5
5
5
5
5
5
5
5
5
5
5
5
5
5
5
5
5
5
5
5
5
5
5
5
5
5
5
5
5
5
5
5
5
5
5
5
5
5
5
5
5
5
5
5
5
5
5
5
5
5
5
5
5
5
5
5
5
5
5
5
5
5
5
5
5
5
5
5
5
5
5
5
5
5
5
5
5
5
5
5
5
5
5
5
5
5
5
5
5
5
5
5
5
5
5
5
5
5
5
5
5
5
5
5
5
5
5
5
5
5
5
5
5
5
5
5
5
5
5
5
5
5
5
5
5
5
5
5
5
5
5
5
5
5
5
5
5
5
5
5
5
5
5
5
POINT_DATA 51
SCALARS GLOBAL_ID int 1
LOOKUP_TABLE default
0 
1 
2 
3 
4 
5 
6 
7 
8 
9 
10 
11 
12 
13 
14 
15 
16 
17 
18 
19 
20 
21 
22 
23 
24 
25 
26 
27 
28 
29 
30 
31 
32 
33 
34 
35 
36 
37 
38 
39 
40 
41 
42 
43 
44 
45 
46 
47 
48 
49 
50 
SCALARS ID-NODES int 1
LOOKUP_TABLE default
0 
1 
2 
3 
4 
5 
6 
7 
8 
9 
10 
11 
12 
13 
14 
15 
16 
17 
18 
19 
20 
21 
22 
23 
24 
25 
26 
27 
28 
29 
30 
31 
32 
33 
34 
35 
36 
37 
38 
39 
40 
41 
42 
43 
44 
45 
46 
47 
48 
49 
50 
SCALARS FLAGS int 1
LOOKUP_TABLE default
101 
101 
101 
101 
202 
202 
202 
202 
0 
0 
0 
0 
0 
0 
0 
0 
0 
0 
0 
0 
0 
0 
0 
0 
0 
0 
0 
0 
0 
0 
0 
0 
0 
0 
0 
0 
0 
0 
0 
0 
0 
0 
0 
0 
0 
0 
0 
0 
0 
0 
0 
CELL_DATA 306
SCALARS GLOBAL_ID int 1
LOOKUP_TABLE default
0 
1 
2 
3 
4 
5 
6 
7 
8 
9 
10 
11 
12 
13 
14 
15 
16 
17 
18 
19 
20 
21 
22 
23 
24 
25 
26 
27 
28 
29 
30 
31 
32 
33 
34 
35 
36 
37 
38 
39 
40 
41 
42 
43 
44 
45 
46 
47 
48 
49 
50 
51 
52 
53 
54 
55 
56 
57 
58 
59 
60 
61 
62 
63 
64 
65 
66 
67 
68 
69 
70 
71 
72 
73 
74 
75 
76 
77 
78 
79 
80 
81 
82 
83 
84 
85 
86 
87 
88 
89 
90 
91 
92 
93 
94 
95 
96 
97 
98 
99 
100 
101 
102 
103 
104 
105 
106 
107 
108 
109 
110 
111 
112 
113 
114 
115 
116 
117 
118 
119 
120 
121 
122 
123 
124 
125 
126 
127 
128 
129 
130 
131 
132 
133 
134 
135 
136 
137 
138 
139 
140 
141 
142 
143 
144 
145 
146 
147 
148 
149 
150 
151 
152 
153 
154 
155 
156 
157 
158 
159 
160 
161 
162 
163 
164 
165 
166 
167 
168 
169 
170 
171 
172 
173 
174 
175 
176 
177 
178 
179 
180 
181 
182 
183 
184 
185 
186 
187 
188 
189 
190 
191 
192 
193 
194 
195 
196 
197 
198 
199 
200 
201 
202 
203 
204 
205 
206 
207 
208 
209 
210 
211 
212 
213 
214 
215 
216 
217 
218 
219 
220 
221 
222 
223 
224 
225 
226 
227 
228 
229 
230 
231 
232 
233 
234 
235 
236 
237 
238 
239 
240 
241 
242 
243 
244 
245 
246 
247 
248 
249 
250 
251 
252 
253 
254 
255 
256 
257 
258 
259 
260 
261 
262 
263 
264 
265 
266 
267 
268 
269 
270 
271 
272 
273 
274 
275 
276 
277 
278 
279 
280 
281 
282 
283 
284 
285 
286 
287 
288 
289 
290 
291 
292 
293 
294 
295 
296 
297 
298 
299 
300 
301 
302 
303 
304 
305 
SCALARS SKINPOINT int 1
LOOKUP_TABLE default
200 
200 
200 
200 
200 
200 
200 
200 
200 
200 
200 
200 
200 
200 
200 
200 
200 
200 
200 
200 
200 
200 
200 
200 
200 
200 
200 
200 
200 
200 
200 
200 
200 
200 
200 
200 
200 
200 
200 
200 
200 
200 
200 
200 
200 
200 
200 
200 
200 
200 
200 
200 
200 
200 
200 
200 
200 
200 
200 
200 
200 
200 
200 
200 
200 
200 
200 
200 
200 
200 
200 
200 
200 
200 
200 
200 
200 
200 
200 
200 
200 
200 
200 
200 
200 
200 
200 
200 
200 
200 
200 
200 
200 
200 
200 
200 
0 
0 
0 
0 
0 
0 
0 
0 
0 
0 
0 
0 
0 
0 
0 
0 
0 
0 
0 
0 
0 
0 
0 
0 
0 
0 
0 
0 
0 
0 
0 
0 
0 
0 
0 
0 
0 
0 
0 
0 
0 
0 
0 
0 
0 
0 
0 
0 
0 
0 
0 
0 
0 
0 
0 
0 
0 
0 
0 
0 
0 
0 
0 
0 
0 
0 
0 
0 
0 
0 
0 
0 
0 
0 
0 
0 
0 
0 
0 
0 
0 
0 
0 
0 
0 
0 
0 
0 
0 
0 
0 
0 
0 
0 
0 
0 
0 
0 
0 
0 
0 
0 
0 
0 
0 
0 
0 
0 
0 
0 
0 
0 
0 
0 
0 
0 
0 
0 
0 
0 
0 
0 
0 
0 
0 
0 
0 
0 
0 
0 
0 
0 
0 
0 
0 
0 
0 
0 
0 
0 
0 
0 
0 
0 
0 
0 
0 
0 
0 
0 
0 
0 
0 
0 
0 
0 
0 
0 
0 
0 
0 
0 
0 
0 
0 
0 
0 
0 
0 
0 
0 
0 
0 
0 
0 
0 
0 
0 
0 
0 
0 
0 
0 
0 
0 
0 
0 
0 
0 
0 
0 
0 
0 
0 
0 
0 
0 
0 
0 
0 
0 
0 
0 
0 
0 
0 
0 
0 
0 
0 
SCALARS ID-FACES int 1
LOOKUP_TABLE default
0 
1 
2 
3 
4 
5 
6 
7 
8 
9 
10 
11 
12 
13 
14 
15 
16 
17 
18 
19 
20 
21 
22 
23 
24 
25 
26 
27 
28 
29 
30 
31 
32 
33 
34 
35 
36 
37 
38 
39 
40 
41 
42 
43 
44 
45 
46 
47 
48 
49 
50 
51 
52 
53 
54 
55 
56 
57 
58 
59 
60 
61 
62 
63 
64 
65 
66 
67 
68 
69 
70 
71 
72 
73 
74 
75 
76 
77 
78 
79 
80 
81 
82 
83 
84 
85 
86 
87 
88 
89 
90 
91 
92 
93 
94 
95 
96 
97 
98 
99 
100 
101 
102 
103 
104 
105 
106 
107 
108 
109 
110 
111 
112 
113 
114 
115 
116 
117 
118 
119 
120 
121 
122 
123 
124 
125 
126 
127 
128 
129 
130 
131 
132 
133 
134 
135 
136 
137 
138 
139 
140 
141 
142 
143 
144 
145 
146 
147 
148 
149 
150 
151 
152 
153 
154 
155 
156 
157 
158 
159 
160 
161 
162 
163 
164 
165 
166 
167 
168 
169 
170 
171 
172 
173 
174 
175 
176 
177 
178 
179 
180 
181 
182 
183 
184 
185 
186 
187 
188 
189 
190 
191 
192 
193 
194 
195 
196 
197 
198 
199 
200 
201 
202 
203 
204 
205 
206 
207 
208 
209 
210 
211 
212 
213 
214 
215 
216 
217 
218 
219 
220 
221 
222 
223 
224 
225 
226 
227 
228 
229 
230 
231 
232 
233 
234 
235 
236 
237 
238 
239 
240 
241 
242 
243 
244 
245 
246 
247 
248 
249 
250 
251 
252 
253 
254 
255 
256 
257 
258 
259 
260 
261 
262 
263 
264 
265 
266 
267 
268 
269 
270 
271 
272 
273 
274 
275 
276 
277 
278 
279 
280 
281 
282 
283 
284 
285 
286 
287 
288 
289 
290 
291 
292 
293 
294 
295 
296 
297 
298 
299 
300 
301 
302 
303 
304 
305 
SCALARS FLAGS int 1
LOOKUP_TABLE default
101 
101 
101 
101 
101 
101 
101 
101 
101 
101 
101 
101 
101 
101 
101 
101 
101 
101 
101 
101 
101 
101 
101 
101 
101 
101 
101 
101 
101 
101 
101 
101 
101 
101 
101 
101 
101 
101 
101 
101 
101 
101 
101 
101 
101 
101 
101 
101 
202 
202 
202 
202 
202 
202 
202 
202 
202 
202 
202 
202 
202 
202 
202 
202 
202 
202 
202 
202 
202 
202 
202 
202 
202 
202 
202 
202 
202 
202 
202 
202 
202 
202 
202 
202 
202 
202 
202 
202 
202 
202 
202 
202 
202 
202 
202 
202 
0 
0 
0 
0 
0 
0 
0 
0 
0 
0 
0 
0 
0 
0 
0 
0 
0 
0 
0 
0 
0 
0 
0 
0 
0 
0 
0 
0 
0 
0 
0 
0 
0 
0 
0 
0 
0 
0 
0 
0 
0 
0 
0 
0 
0 
0 
0 
0 
0 
0 
0 
0 
0 
0 
0 
0 
0 
0 
0 
0 
0 
0 
0 
0 
0 
0 
0 
0 
0 
0 
0 
0 
0 
0 
0 
0 
0 
0 
0 
0 
0 
0 
0 
0 
0 
0 
0 
0 
0 
0 
0 
0 
0 
0 
0 
0 
0 
0 
0 
0 
0 
0 
0 
0 
0 
0 
0 
0 
0 
0 
0 
0 
0 
0 
0 
0 
0 
0 
0 
0 
0 
0 
0 
0 
0 
0 
0 
0 
0 
0 
0 
0 
0 
0 
0 
0 
0 
0 
0 
0 
0 
0 
0 
0 
0 
0 
0 
0 
0 
0 
0 
0 
0 
0 
0 
0 
0 
0 
0 
0 
0 
0 
0 
0 
0 
0 
0 
0 
0 
0 
0 
0 
0 
0 
0 
0 
0 
0 
0 
0 
0 
0 
0 
0 
0 
0 
0 
0 
0 
0 
0 
0 
0 
0 
0 
0 
0 
0 
0 
0 
0 
0 
0 
0 
0 
0 
0 
0 
0 
0 
SCALARS PARALLEL int 1
LOOKUP_TABLE default
2 
2 
1 
1 
2 
2 
2 
2 
2 
2 
2 
2 
2 
2 
2 
2 
0 
0 
0 
0 
1 
2 
2 
2 
1 
1 
2 
0 
2 
0 
0 
2 
0 
0 
0 
0 
2 
2 
2 
2 
2 
2 
0 
2 
0 
2 
0 
0 
0 
0 
1 
1 
0 
0 
0 
0 
1 
0 
0 
0 
0 
0 
0 
1 
0 
0 
1 
1 
2 
1 
1 
1 
1 
1 
1 
1 
1 
1 
1 
1 
1 
1 
0 
0 
1 
1 
2 
2 
1 
1 
0 
0 
1 
1 
1 
0 
0 
0 
0 
0 
0 
0 
0 
0 
0 
0 
0 
0 
0 
0 
0 
0 
0 
0 
0 
0 
0 
0 
0 
0 
0 
0 
0 
0 
0 
0 
0 
0 
0 
0 
0 
0 
0 
0 
0 
0 
0 
0 
0 
0 
0 
0 
0 
0 
0 
0 
0 
0 
0 
0 
0 
0 
0 
0 
0 
0 
0 
0 
0 
0 
0 
0 
0 
0 
0 
0 
0 
0 
0 
0 
0 
0 
0 
0 
0 
0 
0 
0 
0 
0 
0 
0 
0 
0 
0 
0 
0 
0 
0 
0 
0 
0 
0 
0 
0 
0 
0 
0 
0 
0 
0 
0 
0 
0 
0 
0 
0 
0 
0 
0 
0 
0 
0 
0 
0 
0 
0 
0 
0 
0 
0 
0 
0 
0 
0 
0 
0 
0 
0 
0 
0 
0 
0 
0 
0 
0 
0 
0 
0 
0 
0 
0 
0 
0 
0 
0 
0 
0 
0 
0 
0 
0 
0 
0 
0 
0 
0 
0 
0 
0 
0 
0 
0 
0 
0 
0 
0 
0 
0 
0 
0 
0 
0 
0 
0 
0 
0 
0 
0 
0 
0 
0 
0 
0 
0 
0 
0 
0 
0 
0 
0 
0 
0 
0 
0 
0 
0 
0 
0 
0 
0 
0 
0 
0 
0 
0 
VECTORS CENTER double
0.5 0.1666666667 2 
0.1666666667 0.5 2 
1.5 0.1666666667 2 
1.833333333 0.5 2 
0.1666666667 1.5 2 
0.5 1.833333333 2 
1.5 1.833333333 2 
1.833333333 1.5 2 
1.166666667 0.5 2 
0.8333333333 0.5 2 
0.5 1.166666667 2 
0.5 0.8333333333 2 
1 1.666666667 2 
1.5 0.8333333333 2 
1.5 1.166666667 2 
1 1.333333333 2 
0 0.1666666667 0.5 
0 0.5 0.1666666667 
0 1.833333333 0.5 
0 1.5 0.1666666667 
0 0.1666666667 1.5 
0 0.5 1.833333333 
0 1.5 1.833333333 
0 1.833333333 1.5 
0 0.5 1.166666667 
0 0.5 0.8333333333 
0 1 1.666666667 
0 1.5 0.8333333333 
0 1.5 1.166666667 
0 1.166666667 0.5 
0 0.8333333333 0.5 
0 1 1.333333333 
0.5 2 0.1666666667 
0.1666666667 2 0.5 
1.833333333 2 0.5 
1.5 2 0.1666666667 
0.5 2 1.833333333 
0.1666666667 2 1.5 
1.5 2 1.833333333 
1.833333333 2 1.5 
1.166666667 2 1.5 
0.8333333333 2 1.5 
1.5 2 0.8333333333 
1.5 2 1.166666667 
1 2 0.3333333333 
0.5 2 1.166666667 
0.5 2 0.8333333333 
1 2 0.6666666667 
0.5 0.1666666667 0 
0.1666666667 0.5 0 
1.5 0.1666666667 0 
1.833333333 0.5 0 
0.5 1.833333333 0 
0.1666666667 1.5 0 
1.5 1.833333333 0 
1.833333333 1.5 0 
1.166666667 0.5 0 
0.8333333333 0.5 0 
0.8333333333 1.5 0 
1.166666667 1.5 0 
0.5 1.166666667 0 
0.5 0.8333333333 0 
1.5 1.166666667 0 
1.5 0.8333333333 0 
0.5 0 0.1666666667 
0.1666666667 0 0.5 
1.833333333 0 0.5 
1.5 0 0.1666666667 
0.5 0 1.833333333 
0.1666666667 0 1.5 
1.5 0 1.833333333 
1.833333333 0 1.5 
1.166666667 0 1.5 
0.8333333333 0 1.5 
1.5 0 0.8333333333 
1.5 0 1.166666667 
1 0 0.3333333333 
0.5 0 0.8333333333 
0.5 0 1.166666667 
1 0 0.6666666667 
2 0.1666666667 0.5 
2 0.5 0.1666666667 
2 1.833333333 0.5 
2 1.5 0.1666666667 
2 0.1666666667 1.5 
2 0.5 1.833333333 
2 1.833333333 1.5 
2 1.5 1.833333333 
2 0.5 1.166666667 
2 0.5 0.8333333333 
2 1.5 1.166666667 
2 1.5 0.8333333333 
2 1.166666667 1.5 
2 0.8333333333 1.5 
2 0.8333333333 0.5 
2 1.166666667 0.5 
0.1666666667 0.6666666667 0.1666666667 
0.1666666667 0.3333333333 0.1666666667 
0.6666666667 0.1666666667 0.1666666667 
0.3333333333 0.1666666667 0.1666666667 
0.1666666667 0.1666666667 0.3333333333 
0.1666666667 0.1666666667 0.6666666667 
0.3333333333 0.3333333333 0.3333333333 
1.833333333 0.3333333333 0.1666666667 
1.833333333 0.6666666667 0.1666666667 
1.833333333 0.1666666667 0.3333333333 
1.833333333 0.1666666667 0.6666666667 
1.666666667 0.1666666667 0.1666666667 
1.333333333 0.1666666667 0.1666666667 
1.666666667 0.3333333333 0.3333333333 
0.1666666667 1.666666667 0.1666666667 
0.1666666667 1.333333333 0.1666666667 
0.6666666667 1.833333333 0.1666666667 
0.3333333333 1.833333333 0.1666666667 
0.1666666667 1.833333333 0.6666666667 
0.1666666667 1.833333333 0.3333333333 
0.3333333333 1.666666667 0.3333333333 
1.833333333 1.333333333 0.1666666667 
1.833333333 1.666666667 0.1666666667 
1.833333333 1.833333333 0.3333333333 
1.833333333 1.833333333 0.6666666667 
1.666666667 1.833333333 0.1666666667 
1.333333333 1.833333333 0.1666666667 
1.666666667 1.666666667 0.3333333333 
0.6666666667 0.1666666667 1.833333333 
0.3333333333 0.1666666667 1.833333333 
0.1666666667 0.1666666667 1.666666667 
0.1666666667 0.1666666667 1.333333333 
0.1666666667 0.3333333333 1.833333333 
0.1666666667 0.6666666667 1.833333333 
0.3333333333 0.3333333333 1.666666667 
1.666666667 0.1666666667 1.833333333 
1.333333333 0.1666666667 1.833333333 
1.833333333 0.3333333333 1.833333333 
1.833333333 0.6666666667 1.833333333 
1.833333333 0.1666666667 1.666666667 
1.833333333 0.1666666667 1.333333333 
1.666666667 0.3333333333 1.666666667 
0.1666666667 1.833333333 1.333333333 
0.1666666667 1.833333333 1.666666667 
0.6666666667 1.833333333 1.833333333 
0.3333333333 1.833333333 1.833333333 
0.1666666667 1.333333333 1.833333333 
0.1666666667 1.666666667 1.833333333 
0.3333333333 1.666666667 1.666666667 
1.833333333 1.833333333 1.333333333 
1.833333333 1.833333333 1.666666667 
1.833333333 1.666666667 1.833333333 
1.833333333 1.333333333 1.833333333 
1.333333333 1.833333333 1.833333333 
1.666666667 1.833333333 1.833333333 
1.666666667 1.666666667 1.666666667 
0.8771477663 0.2929553265 1.540378007 
0.7104810997 0.4596219931 1.540378007 
0.8771477663 0.4596219931 1.707044674 
1.2104811 0.2929553265 1.540378007 
1.2104811 0.4596219931 1.707044674 
1.377147766 0.4596219931 1.540378007 
1.043814433 0.6262886598 1.707044674 
1.2104811 0.7929553265 1.707044674 
1.043814433 0.2929553265 1.37371134 
0.8771477663 0.2929553265 1.207044674 
1.2104811 0.2929553265 1.207044674 
0.8771477663 0.7929553265 1.707044674 
1.543814433 0.4596219931 1.37371134 
1.7104811 0.4596219931 1.207044674 
1.543814433 0.2929553265 1.207044674 
1.543814433 0.4596219931 0.7070446735 
1.543814433 0.2929553265 0.8737113402 
1.7104811 0.4596219931 0.8737113402 
1.377147766 0.2929553265 1.040378007 
1.7104811 0.6262886598 1.040378007 
1.7104811 0.7929553265 0.8737113402 
1.7104811 0.7929553265 1.207044674 
1.2104811 0.2929553265 0.8737113402 
1 0.1666666667 0.1666666667 
1.166666667 0.1666666667 0.3333333333 
1 0.5 0.1666666667 
0.8333333333 0.3333333333 0.1666666667 
0.6666666667 0.5 0.1666666667 
0.1666666667 0.5 1 
0.1666666667 0.1666666667 1 
0.1666666667 0.3333333333 1.166666667 
0.3333333333 0.1666666667 0.8333333333 
0.5 0.1666666667 1 
0.1666666667 0.5 1.333333333 
0.5 0.1666666667 0.6666666667 
0.1666666667 0.8333333333 1.666666667 
0.1666666667 1 1.833333333 
0.5 1 1.833333333 
0.3333333333 1.166666667 1.833333333 
0.5 1.333333333 1.833333333 
0.8333333333 1.666666667 1.833333333 
1 1.833333333 1.833333333 
1.166666667 1.833333333 1.666666667 
1 1.833333333 1.5 
1.333333333 1.833333333 1.5 
1.666666667 1.833333333 1.166666667 
1.5 1.833333333 1.333333333 
1.666666667 1.5 1.166666667 
1.666666667 1.666666667 1 
1.5 1.666666667 0.8333333333 
1.833333333 1.666666667 0.8333333333 
1.833333333 1.5 0.6666666667 
1.166666667 1.833333333 0.3333333333 
1 1.833333333 0.1666666667 
1 1.5 0.1666666667 
0.8333333333 1.666666667 0.1666666667 
0.6666666667 1.5 0.1666666667 
0.1666666667 1.5 0.6666666667 
0.1666666667 1.666666667 0.8333333333 
0.5 1.666666667 1.166666667 
0.3333333333 1.666666667 1 
0.1666666667 1.666666667 1.166666667 
0.1666666667 1.5 1.333333333 
0.5 1.666666667 0.8333333333 
0.1666666667 1 0.1666666667 
0.1666666667 1.166666667 0.3333333333 
0.1666666667 1 0.5 
0.5 0.6666666667 0.1666666667 
0.3333333333 0.8333333333 0.1666666667 
0.5 1 0.1666666667 
0.1666666667 1.333333333 0.5 
1.543814433 0.7929553265 1.707044674 
1.7104811 0.7929553265 1.540378007 
1.543814433 0.6262886598 1.540378007 
1.543814433 1.292955326 1.540378007 
1.7104811 1.12628866 1.540378007 
1.543814433 1.12628866 1.707044674 
1.377147766 0.9596219931 1.707044674 
1.7104811 0.9596219931 1.37371134 
1.7104811 1.12628866 1.207044674 
1.2104811 1.12628866 1.707044674 
1.666666667 0.8333333333 0.1666666667 
1.5 0.6666666667 0.1666666667 
1.666666667 1 0.3333333333 
1.666666667 0.8333333333 0.5 
1.5 1.166666667 0.3333333333 
1.833333333 1.166666667 0.3333333333 
1.833333333 1.333333333 0.5 
0.8771477663 1.62628866 1.207044674 
1.043814433 1.292955326 1.37371134 
0.8771477663 1.292955326 1.540378007 
0.8333333333 1.666666667 1.5 
0.7104810997 0.9596219931 1.37371134 
0.543814433 0.7929553265 1.37371134 
0.5 0.8333333333 1.666666667 
1.166666667 1.5 1.666666667 
1 1.5 1.833333333 
0.6666666667 1.5 1.833333333 
0.3333333333 1.166666667 1.5 
0.1666666667 1 1.5 
0.7104810997 1.12628866 1.540378007 
0.3771477663 1.12628866 1.207044674 
1.2104811 1.459621993 1.37371134 
0.5 1.5 1.666666667 
0.543814433 1.459621993 1.37371134 
0.543814433 0.6262886598 1.540378007 
0.3771477663 0.7929553265 1.207044674 
0.1666666667 0.6666666667 1.5 
0.543814433 0.4596219931 1.37371134 
1.2104811 1.62628866 1.207044674 
1.377147766 1.459621993 1.540378007 
1.543814433 1.459621993 1.37371134 
0.3333333333 1.5 0.5 
0.5 1.166666667 0.3333333333 
0.5 1.333333333 0.5 
0.7104810997 1.292955326 1.040378007 
0.543814433 1.292955326 1.207044674 
0.7104810997 0.9596219931 0.7070446735 
0.3771477663 0.7929553265 0.8737113402 
0.7104810997 0.7929553265 0.5403780069 
0.3333333333 0.8333333333 0.5 
1.043814433 1.292955326 0.7070446735 
0.6666666667 1.333333333 0.6666666667 
0.8333333333 1.666666667 0.5 
0.3333333333 0.5 0.8333333333 
0.5 0.3333333333 1.166666667 
0.7104810997 0.6262886598 1.040378007 
0.7104810997 0.4596219931 0.8737113402 
0.543814433 0.6262886598 1.207044674 
0.5 0.5 0.3333333333 
0.8333333333 0.3333333333 0.5 
0.6666666667 0.5 0.5 
1.043814433 0.6262886598 0.7070446735 
1.377147766 1.459621993 0.5403780069 
1.2104811 1.62628866 0.8737113402 
1.2104811 1.459621993 0.7070446735 
1.333333333 1.833333333 0.5 
1.2104811 1.12628866 0.3737113402 
1.166666667 1.5 0.3333333333 
1.377147766 1.459621993 1.207044674 
1.377147766 1.292955326 1.040378007 
1 1.833333333 0.5 
1.543814433 1.292955326 0.8737113402 
1.543814433 1.12628866 0.7070446735 
1.666666667 1.5 0.5 
1.543814433 0.6262886598 0.5403780069 
1.377147766 0.7929553265 0.5403780069 
1.2104811 0.7929553265 0.3737113402 
1.2104811 0.4596219931 0.7070446735 
1.166666667 0.5 0.3333333333 
1.377147766 0.9596219931 0.7070446735 
1 0.1666666667 0.5 
1.377147766 0.4596219931 0.5403780069 
1.333333333 0.1666666667 0.5 
VECTORS NORMAL double
0 0 1 
0 0 1 
0 0 1 
0 0 1 
0 0 1 
0 -0 1 
-0 0 1 
-0 0 1 
0 0 1 
0 0 1 
0 0 1 
0 -0 1 
0 0 1 
0 0 1 
0 0 1 
0 0 1 
-1 0 0 
-1 0 -0 
-1 0 0 
-1 0 0 
-1 -0 0 
-1 -0 0 
-1 0 0 
-1 0 0 
-1 0 -0 
-1 0 0 
-1 0 0 
-1 0 0 
-1 0 0 
-1 -0 0 
-1 0 -0 
-1 0 0 
0 1 0 
0 1 0 
-0 1 0 
0 1 0 
0 1 0 
0 1 0 
0 1 -0 
0 1 -0 
0 1 0 
0 1 0 
0 1 -0 
0 1 0 
0 1 0 
0 1 0 
0 1 0 
0 1 0 
0 0 1 
0 0 1 
0 0 1 
0 -0 1 
-0 0 1 
0 0 1 
0 0 1 
0 0 1 
0 0 1 
-0 0 1 
0 0 1 
0 0 1 
-0 0 1 
0 0 1 
0 0 1 
0 -0 1 
0 1 0 
0 1 0 
0 1 -0 
0 1 0 
-0 1 0 
0 1 0 
0 1 0 
0 1 0 
0 1 0 
-0 1 0 
0 1 0 
0 1 0 
-0 1 0 
-0 1 0 
0 1 0 
0 1 0 
1 0 0 
1 0 0 
1 0 0 
1 0 0 
1 0 0 
1 0 -0 
1 -0 0 
1 -0 0 
1 0 0 
1 0 0 
1 0 0 
1 -0 0 
1 0 -0 
1 0 0 
1 0 0 
1 0 0 
0.5773502692 0.5773502692 0.5773502692 
0.5773502692 -0.5773502692 0.5773502692 
0.5773502692 0.5773502692 0.5773502692 
-0.5773502692 0.5773502692 0.5773502692 
0.5773502692 0.5773502692 -0.5773502692 
0.5773502692 0.5773502692 0.5773502692 
0.5773502692 0.5773502692 0.5773502692 
-0.5773502692 -0.5773502692 0.5773502692 
-0.5773502692 0.5773502692 0.5773502692 
-0.5773502692 0.5773502692 -0.5773502692 
-0.5773502692 0.5773502692 0.5773502692 
0.5773502692 0.5773502692 0.5773502692 
-0.5773502692 0.5773502692 0.5773502692 
-0.5773502692 0.5773502692 0.5773502692 
0.5773502692 0.5773502692 0.5773502692 
0.5773502692 -0.5773502692 0.5773502692 
0.5773502692 -0.5773502692 0.5773502692 
-0.5773502692 -0.5773502692 0.5773502692 
0.5773502692 -0.5773502692 0.5773502692 
0.5773502692 -0.5773502692 -0.5773502692 
0.5773502692 -0.5773502692 0.5773502692 
-0.5773502692 -0.5773502692 0.5773502692 
-0.5773502692 0.5773502692 0.5773502692 
-0.5773502692 -0.5773502692 -0.5773502692 
-0.5773502692 -0.5773502692 0.5773502692 
0.5773502692 -0.5773502692 0.5773502692 
-0.5773502692 -0.5773502692 0.5773502692 
-0.5773502692 -0.5773502692 0.5773502692 
0.5773502692 0.5773502692 -0.5773502692 
-0.5773502692 0.5773502692 -0.5773502692 
0.5773502692 0.5773502692 0.5773502692 
0.5773502692 0.5773502692 -0.5773502692 
0.5773502692 -0.5773502692 -0.5773502692 
0.5773502692 0.5773502692 -0.5773502692 
0.5773502692 0.5773502692 -0.5773502692 
0.5773502692 0.5773502692 -0.5773502692 
-0.5773502692 0.5773502692 -0.5773502692 
-0.5773502692 -0.5773502692 -0.5773502692 
-0.5773502692 0.5773502692 -0.5773502692 
-0.5773502692 0.5773502692 0.5773502692 
-0.5773502692 0.5773502692 -0.5773502692 
-0.5773502692 0.5773502692 -0.5773502692 
0.5773502692 -0.5773502692 -0.5773502692 
0.5773502692 -0.5773502692 0.5773502692 
0.5773502692 -0.5773502692 -0.5773502692 
-0.5773502692 -0.5773502692 -0.5773502692 
0.5773502692 -0.5773502692 -0.5773502692 
0.5773502692 0.5773502692 -0.5773502692 
0.5773502692 -0.5773502692 -0.5773502692 
-0.5773502692 -0.5773502692 -0.5773502692 
-0.5773502692 -0.5773502692 0.5773502692 
-0.5773502692 0.5773502692 -0.5773502692 
-0.5773502692 -0.5773502692 -0.5773502692 
-0.5773502692 -0.5773502692 -0.5773502692 
0.5773502692 -0.5773502692 -0.5773502692 
-0.5773502692 -0.5773502692 -0.5773502692 
0.5486983141 -0.6307616984 -0.5486983141 
-0.8153811526 0.4093614393 -0.4093614393 
0.5486983141 0.5486983141 0.6307616984 
-0.6059773671 -0.515347321 -0.6059773671 
-0.6059773671 0.6059773671 0.515347321 
0.9238150519 0.2707080992 -0.2707080992 
-0.989000082 2.583289685e-12 -0.1479149683 
0.7070824584 0.7070824584 0.008294222386 
0.989000082 -0.1479149683 2.583289685e-12 
-0.6929434513 0.1991450388 -0.6929434513 
0.7070824584 -0.008294222386 -0.7070824584 
-0.6929434513 0.6929434513 -0.1991450388 
-0.2790655244 0.2790655244 0.9188279851 
0.5250217647 0.6018106623 -0.6018106623 
-0.6059773671 -0.515347321 -0.6059773671 
-0.4071213137 0.4071213137 -0.8176212276 
-0.553161945 -0.6229155041 0.553161945 
0.6313476699 0.5483612494 0.5483612494 
4.079472503e-12 0.1365390913 -0.9906346837 
0.13812899 2.039282369e-12 0.9904142477 
-0.1935065974 0.6937417375 -0.6937417375 
-7.032190205e-13 0.7071067812 0.7071067812 
-0.6929434513 0.1991450388 -0.6929434513 
-0.5773502692 0.5773502692 -0.5773502692 
-2.912011231e-12 0.7071067812 0.7071067812 
0.3015113446 0.3015113446 0.9045340337 
-0.7071067812 -1.455946737e-12 -0.7071067812 
-0.5773502692 0.5773502692 0.5773502692 
0.9045340337 0.3015113446 -0.3015113446 
0.5773502692 -0.5773502692 -0.5773502692 
-0.7071067812 -1.846978264e-12 0.7071067812 
1.846978264e-12 -0.7071067812 -0.7071067812 
0.3015113446 0.9045340337 0.3015113446 
0.5773502692 0.5773502692 0.5773502692 
0.5773502692 0.5773502692 -0.5773502692 
0.7071067812 1.847056768e-12 -0.7071067812 
0.5773502692 0.5773502692 0.5773502692 
0.3015113446 -0.3015113446 -0.9045340337 
-1.846978264e-12 0.7071067812 0.7071067812 
0.5773502692 0.5773502692 -0.5773502692 
1.847056768e-12 -0.7071067812 -0.7071067812 
0.5773502692 0.5773502692 -0.5773502692 
0.7071067812 0.7071067812 1.846978264e-12 
-0.3015113446 -0.9045340337 -0.3015113446 
0.5773502692 -0.5773502692 -0.5773502692 
2.911893474e-12 -0.7071067812 -0.7071067812 
-0.5773502692 -0.5773502692 0.5773502692 
-0.5773502692 -0.5773502692 0.5773502692 
4.118039243e-12 2.059019621e-12 -1 
-0.5773502692 -0.5773502692 -0.5773502692 
0.7071067812 1.455946737e-12 -0.7071067812 
-0.5773502692 -0.5773502692 -0.5773502692 
-2.912011231e-12 -0.7071067812 0.7071067812 
-0.5773502692 -0.5773502692 -0.5773502692 
0.3015113446 -0.3015113446 0.9045340337 
-0.7071067812 1.455946737e-12 -0.7071067812 
-0.5773502692 -0.5773502692 0.5773502692 
0.5773502692 -0.5773502692 -0.5773502692 
0.7071067812 1.846978264e-12 0.7071067812 
0.5773502692 -0.5773502692 0.5773502692 
2.61202171e-12 -2.61202171e-12 -1 
-0.7071067812 1.846978264e-12 0.7071067812 
0.5773502692 -0.5773502692 0.5773502692 
0.5773502692 -0.5773502692 -0.5773502692 
0.5773502692 -0.5773502692 -0.5773502692 
-0.7071067812 0.7071067812 2.911893474e-12 
0.9045340337 -0.3015113446 0.3015113446 
0.5773502692 -0.5773502692 0.5773502692 
3.009631729e-12 0.7071067812 0.7071067812 
0.3015113446 0.3015113446 0.9045340337 
0.5773502692 0.5773502692 0.5773502692 
-0.6059773671 0.6059773671 0.515347321 
0.5250217647 0.6018106623 -0.6018106623 
-0.2790655244 -0.9188279851 -0.2790655244 
-0.4071213137 0.8176212276 -0.4071213137 
0.6313476699 -0.5483612494 -0.5483612494 
-0.553161945 -0.553161945 0.6229155041 
2.587559301e-12 0.9906346837 -0.1365390913 
0.13812899 -0.9904142477 -1.616933422e-12 
-0.1935065974 0.6937417375 -0.6937417375 
-0.6929434513 0.6929434513 -0.1991450388 
1.749240008e-12 0.7071067812 0.7071067812 
-0.5773502692 -0.5773502692 0.5773502692 
2.473798943e-12 1 -1.632582958e-12 
-0.5773502692 -0.5773502692 0.5773502692 
-0.5773502692 0.5773502692 0.5773502692 
0.7071067812 0.7071067812 -1.15441048e-12 
-0.5773502692 0.5773502692 0.5773502692 
-0.6983018213 -0.1573185712 -0.6983018213 
0.9831579035 0.1292295182 0.1292295182 
-0.8788045207 -0.4725533225 -0.06630212434 
0.5773502692 0.5773502692 0.5773502692 
0.1182106613 0.9859272179 -0.1182106613 
-0.05108593047 -0.9032427281 -0.4260783988 
-0.5773502692 0.5773502692 0.5773502692 
0.5773502692 -0.5773502692 -0.5773502692 
-0.3015113446 0.3015113446 0.9045340337 
-0.5773502692 -0.5773502692 -0.5773502692 
0.5773502692 0.5773502692 -0.5773502692 
-0.9045340337 -0.3015113446 0.3015113446 
0.4672047826 0.8826317156 -0.05177784962 
0.1497016479 0.6991385473 -0.6991385473 
0.9045540053 0.06045014616 -0.4220519296 
0.3015113446 -0.3015113446 -0.9045340337 
-0.2067312219 0.2067312219 -0.9563076931 
0.2364169153 -0.9424511045 -0.2364169153 
4.808692488e-13 -0.7071067812 -0.7071067812 
-0.5773502692 0.5773502692 0.5773502692 
-0.2364169153 -0.2364169153 -0.9424511045 
0.7070918342 0.006501993878 -0.7070918342 
0.9445986014 -0.2320920962 -0.2320920962 
0.2393165763 0.2393165763 -0.9409862659 
0.9045340337 -0.3015113446 0.3015113446 
-0.5773502692 -0.5773502692 -0.5773502692 
0.7071067812 7.279341162e-13 0.7071067812 
0.09581586209 -0.09581586209 -0.9907767867 
-0.1389874393 -0.3864047958 0.9117970309 
0.09581586209 0.9907767867 0.09581586209 
-0.1497016479 -0.6991385473 0.6991385473 
0.3842130329 -0.9120108332 -0.1435847674 
-0.5773502692 0.5773502692 -0.5773502692 
0.9889889988 0.1046440642 -0.1046440642 
-0.5773502692 0.5773502692 -0.5773502692 
0.5773502692 0.5773502692 -0.5773502692 
0.5773502692 0.5773502692 -0.5773502692 
0.5773502692 0.5773502692 0.5773502692 
-0.1182106613 -0.1182106613 0.9859272179 
0.4672047826 0.05177784962 -0.8826317156 
0.05108593047 -0.4260783988 -0.9032427281 
0.3015113446 0.3015113446 0.9045340337 
0.5773502692 -0.5773502692 -0.5773502692 
3.151960611e-13 0.7071067812 0.7071067812 
0.9831579035 -0.1292295182 -0.1292295182 
0.9580473466 -0.2026638618 0.2026638618 
0.6983018213 0.1573185712 0.6983018213 
-0.9122025711 -0.1482204832 -0.3819910439 
-0.5773502692 0.5773502692 -0.5773502692 
0.6983018213 -0.6983018213 -0.1573185712 
-0.5773502692 0.5773502692 -0.5773502692 
0.4276526614 -0.04739449598 -0.9026998188 
-0.1206024533 -0.1206024533 -0.9853477034 
-0.3015113446 -0.9045340337 0.3015113446 
-0.05744081869 -0.4693037102 -0.8811666017 
0.0574408187 -0.8811666017 -0.4693037102 
0.9045340337 0.3015113446 -0.3015113446 
-0.2393165763 -0.9409862659 0.2393165763 
0.4276526614 0.9026998188 0.04739449598 
-0.7070918342 -0.7070918342 0.006501993877 
0.9128617681 -0.1865794286 0.3631411698 
-0.5773502692 -0.5773502692 -0.5773502692 
-0.1206024533 0.9853477034 0.1206024533 
0.3015113446 -0.9045340337 -0.3015113446 
0.9445986014 0.2320920962 0.2320920962 