# vtk DataFile Version 3.0
MOAB 5.0.1
ASCII
DATASET UNSTRUCTURED_GRID
POINTS 846 double
1 1 0
0.8620446046 1 0.2848936849
0.6248168945 0.8748168945 0
0.6907125566 0.8274375279 0.512364102
0.5994365696 0.626962327 0.344194462
1 1 0.5
1 0.6076353153 0.3922255904
0.6026315962 0.6658932164 0.3946689312
0.5596158954 0.685002594 0.4130912305
0.6668918638 0.5675939807 0.4341883557
0.7139544666 0.7559909395 0.5031524537
1 0.875 0
0.7647044817 0.7428252812 0.432168232
0.8127354779 0.9306333183 0.4917450311
0.5 1 0
1 0.5 0
1 1 0.125
1 0.5330729601 0.4667813856
0.9407786396 0.498275855 0.4357478268
0.940573031 1 0.5210207441
0.7120069248 0.4714455219 0.3631126306
0.6242675781 0.4992675781 0
1 0.4957917825 0.5040592833
0.6254739062 0.5430625805 0.1151351776
0.8231308804 0.5845114267 0.4370801988
0.6672893446 0.6641494605 0.4472491517
0.4990234375 0.4990234375 0
0.6729812123 0.7225967485 0.4581309911
1 1 0.375
1 1 0.25
0.875 1 0
0.75 1 0
0.625 1 0
1 0.625 0
1 0.75 0
0.6636968371 0.5286630913 0.3837138865
0.4718001688 0.6625092796 0.3798412078
0.5622486718 0.521043009 0.05756758878
0.4831839041 0.7794038555 0.4016048867
0.4615418567 0.7620382337 0.3306023669
0.4916621678 0.892265774 0.4071286869
0.6162890699 0.4703182545 0.5002558264
0.6181842952 0.5282560704 0.4417288155
0.6431865987 0.5646751311 0.2307176954
0.624472149 0.7068661684 0.2004086489
0.6199453665 0.7452813228 0.1747584453
0.6166644817 0.7451370299 0.06383477022
0.6833322408 0.8100685149 0.03191738511
0.5834863898 0.6680439932 0.2840737817
0.6181828537 0.682587106 0.1192966077
0.6289989316 0.6684510141 0.2260588526
0.8215180295 0.9742667532 0.3820591637
0.8467855759 0.9485335065 0.4189198328
0.8595198809 0.9485335065 0.4653517017
0.7159969131 0.7034873709 0.4397086918
0.7569701675 0.7368815619 0.4847301543
0.8721624469 0.9306333183 0.470724287
0.9189468498 0.9485335065 0.4443309576
0.9000464559 0.9742667532 0.4931862229
0.7495117188 0.4995117187 0
0.8747558594 0.4997558594 0
1 0.9112291232 0.4637369232
1 0.8224582465 0.4274738464
1 0.8038176577 0.5086127952
1 0.7057264865 0.4504191928
0.8749389648 0.8749389648 0
0.7498779297 0.8748779297 0
0.6246337891 0.7496337891 0
0.6244506836 0.6244506836 0
0.5133042153 0.9096313958 0.4781312067
0.6356573791 0.800153414 0.4874351299
0.5926416782 0.8192627916 0.5058574293
0.4736354838 0.9548156979 0.4642680954
0.9310223023 1 0.2049468424
0.7240892092 1 0.4447873698
0.7930669069 1 0.3648405273
0.5726608283 1 0.4243802425
0.6420078662 1 0.4113678717
0.7113549042 1 0.3983555008
0.5033137903 1 0.4373926133
0.4997558594 0.8747558594 0
0.8227333996 0.5252371245 0.3867415052
0.7607144933 0.5107834322 0.3555721707
1 0.4310547201 0.3500860392
0.9411761204 0.6321125124 0.4115307252
0.88195476 0.5973154073 0.3804971664
0.4834916881 1 0.112601246
0.4504750642 1 0.3378037381
0.4669833762 1 0.2252024921
0.6664943829 0.471038501 0.4211275597
1 0.6449164929 0.3549476928
1 0.5724582465 0.1774738464
1 0.5362291232 0.0887369232
1 0.6086873697 0.2662107696
0.8811460621 1 0.5420414882
0.8684117571 1 0.3706096193
0.8747789096 1 0.4563255538
0.8235283612 0.6810669065 0.4501409948
0.7337282575 0.8083281503 0.4939418027
0.776140869 0.8535124524 0.5134981895
0.7944381734 0.8920728853 0.5026216103
0.8006960013 0.8842398268 0.4483937597
0.5379738479 0.6676369722 0.3420887107
0.6874928125 0.5212871496 0.05756758878
1 0.5703541377 0.429503488
1 0.8840572808 0.1159342308
0.6914966864 0.5074575617 0.2101164395
0.88195476 0.5227530521 0.4550529616
0.7767439583 0.7892187727 0.4755195034
0.8316358718 0.9049000715 0.4428897658
0.8133385673 0.8663396386 0.453766345
0.8012990907 0.8199461471 0.4104150735
0.7830017862 0.7813857141 0.4212916527
0.9278387261 1 0.09958887521
0.8556774521 1 0.1991777504
0.7835161782 1 0.2987666256
0.5337353427 1 0.32804446
0.6169956212 1 0.3182851819
0.6613304141 1 0.2121901212
0.5641568951 1 0.2186963066
0.7002558997 1 0.3085259037
0.7585039331 1 0.2056839358
0.8167519666 1 0.1028419679
0.7056652071 1 0.1060950606
0.5945784476 1 0.1093481533
0.9342058785 1 0.3103048097
0.9373894548 1 0.4156627769
0.7368235142 1 0.4912192387
0.8026176356 1 0.430914429
0.8121683644 1 0.4969883307
0.7495578191 1 0.5376511076
0.6556856729 1 0.4805414618
0.5872821367 1 0.5162955539
0.6693634797 1 0.549715052
0.5188786005 1 0.552049646
0.4992675781 0.6242675781 0
0.4995117188 0.7495117188 0
0.7497558594 0.7497558594 0
0.7496337891 0.6246337891 0
0.8748168945 0.6248168945 0
0.8748779297 0.7498779297 0
1 0.5494764865 0.2941691928
1 0.4902656033 0.322127616
1 0.4913176577 0.1961127952
1 0.4331588288 0.0980563976
1 0.7336873697 0.3912107696
1 0.8931145616 0.2318684616
1 0.7862291232 0.2137369232
1 0.7681145616 0.1068684616
1 0.9021718424 0.3478026924
1 0.8043436848 0.3206053848
1 0.7065155273 0.2934080772
1 0.6793436848 0.1956053848
1 0.6521718424 0.0978026924
1 0.6777656033 0.509627616
1 0.9019088288 0.5668063976
1 0.6498047201 0.5688360392
0.8227333996 0.4879559469 0.4240194028
0.7635120392 0.4531588418 0.3929858439
0.9407786396 0.4609946774 0.4730257244
0.853262053 0.956366565 0.5195795523
0.7938350841 0.956366565 0.5406002964
0.788783435 0.8356122642 0.5188707748
0.4986862481 0.8943665422 0.5415640566
0.8429406577 0.5470035544 0.2558317655
0.8195383729 0.4863062351 0.3362670359
0.816740827 0.5439308255 0.2988533627
0.9049595639 0.5252281235 0.1982641767
0.9049595639 0.4889990003 0.1095272535
0.9669784702 0.5034526927 0.1406965879
0.9407786396 0.5728382102 0.3611920316
0.9379810937 0.5217754309 0.05756758878
0.7547219208 0.5294771332 0.2676840283
0.7575194666 0.4718525428 0.3050977015
0.9379810937 0.5942336774 0.2350414352
0.9049595639 0.5614572468 0.2870010999
0.6869303877 0.4895912116 0.1334363685
0.8121745283 0.4898353522 0.1334363685
0.7501556221 0.5116107831 0.1910039573
0.9669784702 0.4672235694 0.05195966473
0.9379810937 0.6304628006 0.3237783584
0.7507180468 0.5433067212 0.1151351776
0.7809217514 0.5325498621 0.2246624311
0.8787597333 0.5583845179 0.3300226972
0.8429406577 0.5107744312 0.1670948423
0.8759621874 0.5435508618 0.1151351776
0.8127369531 0.5215312903 0.05756758878
0.8485601302 0.7787623396 0.5185806872
0.9381229178 0.7221343145 0.439271731
0.9073840098 0.7542851425 0.4992755524
0.7927894532 0.7504989121 0.4728669185
0.8204751586 0.7710887086 0.4778820006
0.8516133328 0.7260217151 0.4535617837
0.9104372124 0.701544518 0.4342566489
0.8792990382 0.7466115116 0.4585768658
0.8227269682 0.8483690021 0.4696580063
0.8164691404 0.8562020607 0.5238858569
0.8441548458 0.8767918572 0.528900939
0.8235283612 0.7183480841 0.4128630972
0.8231308804 0.6217926043 0.3998023012
0.8823522408 0.6938708871 0.3935579624
0.969261092 0.6397861433 0.4522294118
0.938522184 0.709218149 0.4749553355
0.969261092 0.7658381977 0.4512145909
0.969261092 0.8546090745 0.4874776677
0.9594734249 0.9742667532 0.4721654788
0.9381229178 0.8109051913 0.4755348078
0.9073840098 0.8430560193 0.5355386292
0.9381229178 0.8996760681 0.5117978847
0.8106874915 0.8019755106 0.4263067349
0.8044296637 0.8098085692 0.4805345855
0.8602003407 0.8380719966 0.5262483541
0.8347664449 0.8947624936 0.5130092777
0.9377236516 0.9125922336 0.4761142802
0.8762458356 0.7993521361 0.5235957693
0.9688618258 0.9562961168 0.4880571401
0.9283352507 0.93056287 0.4602226189
0.8410242727 0.8869294351 0.4587814271
0.8815508478 0.9126626818 0.4866159483
0.8909392487 0.8946920454 0.5025076096
0.7950412628 0.8277792056 0.4646429242
0.7000467333 0.744569037 0.3795880115
0.8270120264 0.8288956243 0.370136969
0.8527249621 0.8378451015 0.3298588644
0.8453093309 0.8674560573 0.3592603898
0.828984796 0.8405359436 0.4154301557
0.6968517066 0.7056381476 0.3291135423
0.6906058557 0.7289231211 0.2798323593
0.6938008824 0.7678540105 0.3303068285
0.885835906 0.893189304 0.262094911
0.926362481 0.9189225508 0.1649294322
0.9594734249 0.9742667532 0.2221654788
0.7779257155 0.7983447054 0.2933277613
0.7522127798 0.7893952281 0.3336058659
0.7490177531 0.7504643387 0.2831313967
0.7412959438 0.7499486037 0.2070067238
0.8066894755 0.7450783197 0.2518563706
0.7747306888 0.759413816 0.2428532921
0.9334543111 0.9351905852 0.03191738511
0.8083322408 0.8100685149 0.03191738511
0.7672519896 0.7502275532 0.1635161087
0.8018388918 0.8293724643 0.1225956452
0.7687279479 0.7740282618 0.1903595986
0.8087147219 0.7903351914 0.3810135482
0.7767559352 0.8046706876 0.3720104697
0.8932515372 0.8635783483 0.2326933856
0.7398199855 0.7261478952 0.180163234
0.8021626929 0.783493474 0.2262061669
0.7732547305 0.7356131074 0.2160098023
0.6259481073 0.730666877 0.2272521388
0.6768813055 0.7430218319 0.1512139929
0.7338172446 0.740762341 0.1276695404
0.7383440272 0.7023471866 0.1533197441
0.8784202747 0.9228002597 0.4164964364
0.8472821005 0.8790963765 0.4045535765
0.6814080881 0.7046066775 0.1768641965
0.6828840464 0.7284073861 0.2037076864
0.6481441381 0.6663002373 0.3366540021
0.6321939583 0.7073819035 0.2765333218
0.7427719021 0.7737493122 0.2338502137
0.6843600047 0.7522080946 0.2305511762
0.7584586307 0.7661102547 0.3828870489
0.8936793035 0.9742667532 0.2824702885
0.9003433673 0.8798463828 0.09968133853
0.8669086223 0.8703811705 0.06383477022
0.7416644817 0.7451370299 0.06383477022
0.8003629334 0.8055717557 0.09575215533
0.6513391648 0.7052311267 0.3871284713
0.8006867346 0.7596927655 0.1993626771
0.8281818067 0.822569642 0.2914542606
0.8098845022 0.7840092091 0.3023308398
0.8036386512 0.8072941826 0.2530496568
0.6875550314 0.791138984 0.2810256454
0.8687083817 0.8483028888 0.1942887818
0.9668890561 0.9446557975 0.06776395342
0.6753629334 0.8055717557 0.09575215533
0.8337976784 0.815036968 0.1315987236
0.8672324234 0.8245021803 0.1674452919
0.9018193256 0.9036470913 0.1265248284
0.9189468498 0.9485335065 0.3193309576
0.8260043249 0.6183613566 0.5077626978
0.9411761204 0.5575501572 0.4860865204
0.7594461312 0.674176012 0.5423518574
0.7082625989 0.6975436516 0.4922706142
0.8848282045 0.5566029819 0.5257354607
0.5577218893 0.5594581634 0.03191738511
0.6272364189 0.6057567973 0.1705970151
0.6227096363 0.6441719517 0.1449468114
[...]
POINT_DATA 846
SCALARS GLOBAL_ID int 1
LOOKUP_TABLE default
3 
8 
9 
13 
16 
18 
24 
25 
26 
27 
33 
39 
53 
58 
62 
63 
64 
67 
75 
81 
85 
86 
88 
93 
96 
99 
100 
102 
139 
140 
141 
142 
143 
166 
167 
168 
171 
174 
175 
176 
177 
184 
185 
208 
225 
226 
227 
228 
229 
230 
231 
232 
233 
234 
235 
240 
328 
329 
330 
344 
345 
346 
347 
348 
349 
350 
351 
352 
353 
355 
356 
357 
359 
360 
366 
367 
368 
369 
370 
371 
378 
400 
401 
415 
421 
422 
424 
425 
426 
447 
474 
475 
476 
477 
489 
490 
491 
495 
506 
507 
508 
509 
510 
521 
522 
523 
528 
529 
530 
531 
532 
533 
534 
620 
621 
622 
623 
624 
625 
626 
627 
628 
629 
630 
631 
632 
633 
634 
635 
636 
637 
640 
641 
643 
644 
676 
677 
682 
683 
684 
685 
766 
767 
769 
771 
772 
773 
774 
775 
776 
777 
778 
779 
780 
782 
783 
786 
881 
882 
929 
1011 
1020 
1024 
1087 
1152 
1153 
1154 
1155 
1156 
1157 
1158 
1159 
1160 
1161 
1162 
1163 
1164 
1165 
1166 
1167 
1168 
1169 
1170 
1171 
1172 
1173 
1174 
1175 
1176 
1177 
1180 
1181 
1182 
1183 
1184 
1185 
1186 
1187 
1188 
1189 
1190 
1191 
1192 
1193 
1194 
1195 
1196 
1197 
1198 
1199 
1200 
1201 
1202 
1204 
1205 
1206 
1207 
1208 
1209 
1210 
1306 
1322 
1323 
1324 
1325 
1326 
1327 
1328 
1329 
1330 
1331 
1332 
1333 
1334 
1335 
1336 
1337 
1338 
1339 
1340 
1341 
1342 
1343 
1344 
1345 
1346 
1347 
1348 
1349 
1350 
1351 
1352 
1353 
1354 
1355 
1356 
1357 
1358 
1359 
1360 
1361 
1362 
1363 
1364 
1365 
1366 
1367 
1368 
1369 
1370 
1371 
1372 
1373 
1374 
1375 
1376 
1377 
1378 
1379 
1380 
1382 
1383 
1385 
1386 
1387 
1469 
1470 
1471 
1472 
1473 
1474 
1514 
1516 
1517 
1521 
1559 
1560 
1561 
1562 
1563 
1564 
1565 
1566 
1567 
1568 
1569 
1570 
1571 
1572 
1573 
1574 
1575 
1576 
1577 
1578 
1579 
1580 
1581 
1631 
1632 
1633 
1634 
1635 
1637 
1638 
1642 
1643 
1644 
1645 
1649 
1650 
1651 
1652 
1653 
1654 
1655 
1656 
1657 
1658 
1659 
1660 
1661 
1662 
1663 
1664 
1665 
1666 
1667 
1668 
1669 
1670 
1671 
1672 
1673 
1741 
1773 
1774 
1775 
1776 
1777 
1778 
1779 
1817 
1818 
1853 
1854 
1855 
1856 
1860 
1867 
1874 
1875 
1876 
1877 
2253 
2254 
2256 
2257 
2282 
2286 
2287 
2305 
2307 
2308 
2315 
2326 
2355 
2369 
2370 
2371 
2372 
2373 
2374 
2375 
2376 
2377 
2378 
2379 
2380 
2381 
2382 
2383 
2384 
2385 
2386 
2387 
2388 
2389 
2390 
2391 
2392 
2393 
2394 
2395 
2396 
2397 
2398 
2399 
2400 
2401 
2402 
2403 
2404 
2405 
2406 
2407 
2408 
2409 
2410 
2411 
2412 
2413 
2414 
2415 
2416 
2417 
2418 
2419 
2420 
2421 
2422 
2423 
2424 
2425 
2426 
2427 
2428 
2429 
2430 
2431 
2432 
2433 
2434 
2435 
2436 
2437 
2438 
2439 
2440 
2441 
2442 
2443 
2444 
2445 
2446 
2447 
2448 
2449 
2450 
2451 
2452 
2453 
2454 
2455 
2456 
2457 
2458 
2459 
2460 
2461 
2462 
2463 
2464 
2465 
2466 
2467 
2468 
2469 
2470 
2471 
2472 
2473 
2474 
2475 
2476 
2477 
2478 
2479 
2480 
2481 
2482 
2483 
2484 
2485 
2486 
2487 
2488 
2489 
2490 
2491 
2492 
2493 
2494 
2495 
2496 
2497 
2498 
2499 
2500 
2501 
2502 
2503 
2504 
2505 
2506 
2507 
2508 
2509 
2510 
2511 
2512 
2513 
2514 
2515 
2516 
2517 
2518 
2519 
2520 
2521 
2522 
2523 
2524 
2525 
2526 
2527 
2528 
2529 
2530 
2531 
2532 
2533 
2534 
2535 
2536 
2537 
2538 
2539 
2540 
2541 
2542 
2543 
2544 
2545 
2546 
2547 
2607 
2609 
2637 
2645 
2646 
2647 
2648 
2651 
2657 
2658 
2660 
2661 
2662 
2663 
2664 
2666 
2667 
2668 
2794 
2805 
2806 
2807 
2808 
2809 
2819 
2825 
2827 
3055 
3056 
3057 
3058 
3060 
3064 
3110 
3111 
3113 
3114 
3117 
3118 
3119 
3165 
3166 
3169 
3170 
3178 
3669 
3670 
3671 
3672 
3673 
3674 
3675 
3676 
3677 
3678 
3679 
3680 
3681 
3682 
3683 
3684 
3685 
3686 
3687 
3688 
3689 
3690 
3691 
3692 
3693 
3694 
3695 
3696 
3697 
3698 
3699 
3700 
3701 
3702 
3703 
3704 
3705 
3706 
3707 
3708 
3709 
3710 
3711 
3712 
3713 
3714 
3715 
3716 
3717 
3718 
3719 
3720 
3721 
3722 
3723 
3724 
3725 
3726 
3727 
3728 
3729 
3730 
3731 
3732 
3733 
3734 
3735 
3736 
3737 
3738 
3739 
3740 
3741 
3742 
3743 
3744 
3745 
3746 
3747 
3748 
3749 
3750 
3751 
3752 
3753 
3754 
3755 
3756 
3757 
3758 
3759 
3760 
3761 
3762 
3763 
3764 
3765 
3766 
3767 
3768 
3769 
3770 
3771 
3772 
3773 
3774 
3775 
3776 
3777 
3778 
3779 
3780 
3781 
3782 
3783 
3784 
3785 
3786 
3787 
3788 
3789 
3790 
3791 
3792 
3793 
3794 
3795 
3796 
3797 
3798 
3799 
3800 
3801 
3802 
3803 
3804 
3805 
3806 
3807 
3808 
3809 
3810 
3811 
3812 
3813 
3814 
3815 
3816 
3817 
3818 
3819 
3820 
3821 
3822 
3823 
3824 
3825 
3826 
3827 
3828 
3829 
3830 
3831 
3832 
3833 
3834 
3835 
4010 
4011 
4013 
4049 
4056 
4057 
4058 
4073 
4077 
4079 
4080 
4081 
4082 
4084 
4112 
4139 
4140 
4142 
4146 
4149 
4150 
4190 
4192 
4193 
4195 
4196 
4204 
4205 
4206 
4208 
4209 
4210 
4218 
4219 
4220 
4221 
4224 
4226 
4227 
4230 
4233 
4235 
4304 
4317 
4322 
4362 
4369 
4873 
4876 
4930 
4934 
4935 
4936 
4937 
4939 
4942 
4943 
4944 
4946 
4965 
4966 
4967 
4968 
4969 
5001 
5002 
5003 
5038 
SCALARS LOCAL_ID_L1 int 1
LOOKUP_TABLE default
0 
1 
2 
3 
4 
5 
6 
7 
8 
9 
10 
11 
12 
13 
14 
15 
16 
17 
18 
19 
20 
21 
22 
23 
24 
25 
26 
27 
28 
29 
30 
31 
32 
33 
34 
35 
36 
37 
38 
39 
40 
41 
42 
43 
44 
45 
46 
47 
48 
49 
50 
51 
52 
53 
54 
55 
56 
57 
58 
59 
60 
61 
62 
63 
64 
65 
66 
67 
68 
69 
70 
71 
72 
73 
74 
75 
76 
77 
78 
79 
80 
81 
82 
83 
84 
85 
86 
87 
88 
89 
90 
91 
92 
93 
94 
95 
96 
97 
98 
99 
100 
101 
102 
103 
104 
105 
106 
107 
108 
109 
110 
111 
112 
113 
114 
115 
116 
117 
118 
119 
120 
121 
122 
123 
124 
125 
126 
127 
128 
129 
130 
131 
132 
133 
134 
135 
136 
137 
138 
139 
140 
141 
142 
143 
144 
145 
146 
147 
148 
149 
150 
151 
152 
153 
154 
155 
156 
157 
158 
159 
160 
161 
162 
163 
164 
165 
166 
167 
168 
169 
170 
171 
172 
173 
174 
175 
176 
177 
178 
179 
180 
181 
182 
183 
184 
185 
186 
187 
188 
189 
190 
191 
192 
193 
194 
195 
196 
197 
198 
199 
200 
201 
202 
203 
204 
205 
206 
207 
208 
209 
210 
211 
212 
213 
214 
215 
216 
217 
218 
219 
220 
221 
222 
223 
224 
225 
226 
227 
228 
229 
230 
231 
232 
233 
234 
235 
236 
237 
238 
239 
240 
241 
242 
243 
244 
245 
246 
247 
248 
249 
250 
251 
252 
253 
254 
255 
256 
257 
258 
259 
260 
261 
262 
263 
264 
265 
266 
267 
268 
269 
270 
271 
272 
273 
274 
275 
276 
277 
278 
279 
280 
281 
282 
283 
284 
285 
286 
287 
288 
289 
290 
291 
292 
293 
294 
295 
296 
297 
298 
299 
300 
301 
302 
303 
304 
305 
306 
307 
308 
309 
310 
311 
312 
313 
314 
315 
316 
317 
318 
319 
320 
321 
322 
323 
324 
325 
326 
327 
328 
329 
330 
331 
332 
333 
334 
335 
336 
337 
338 
339 
340 
341 
342 
343 
344 
345 
346 
347 
348 
349 
350 
351 
352 
353 
354 
355 
356 
357 
358 
359 
360 
361 
362 
363 
364 
365 
366 
367 
368 
369 
370 
371 
372 
373 
374 
375 
376 
377 
378 
379 
380 
381 
382 
383 
384 
385 
386 
387 
388 
389 
390 
391 
392 
393 
394 
395 
396 
397 
398 
399 
400 
401 
402 
403 
404 
405 
406 
407 
408 
409 
410 
411 
412 
413 
414 
415 
416 
417 
418 
419 
420 
421 
422 
423 
424 
425 
426 
427 
428 
429 
430 
431 
432 
433 
434 
435 
436 
437 
438 
439 
440 
441 
442 
443 
444 
445 
446 
447 
448 
449 
450 
451 
452 
453 
454 
455 
456 
457 
458 
459 
460 
461 
462 
463 
464 
465 
466 
467 
468 
469 
470 
471 
472 
473 
474 
475 
476 
477 
478 
479 
480 
481 
482 
483 
484 
485 
486 
487 
488 
489 
490 
491 
492 
493 
494 
495 
496 
497 
498 
499 
500 
501 
502 
503 
504 
505 
506 
507 
508 
509 
510 
511 
512 
513 
514 
515 
516 
517 
518 
519 
520 
521 
522 
523 
524 
525 
526 
527 
528 
529 
530 
531 
532 
533 
534 
535 
536 
537 
538 
539 
540 
541 
542 
543 
544 
545 
546 
547 
548 
549 
550 
551 
552 
553 
554 
555 
556 
557 
558 
559 
560 
561 
562 
563 
564 
565 
566 
567 
568 
569 
570 
571 
572 
573 
574 
575 
576 
577 
578 
579 
580 
581 
582 
583 
584 
585 
586 
587 
588 
589 
590 
591 
592 
593 
594 
595 
596 
597 
598 
599 
600 
601 
602 
603 
604 
605 
606 
607 
608 
609 
610 
611 
612 
613 
614 
615 
616 
617 
618 
619 
620 
621 
622 
623 
624 
625 
626 
627 
628 
629 
630 
631 
632 
633 
634 
635 
636 
637 
638 
639 
640 
641 
642 
643 
644 
645 
646 
647 
648 
649 
650 
651 
652 
653 
654 
655 
656 
657 
658 
659 
660 
661 
662 
663 
664 
665 
666 
667 
668 
669 
670 
671 
672 
673 
674 
675 
676 
677 
678 
679 
680 
681 
682 
683 
684 
685 
686 
687 
688 
689 
690 
691 
692 
693 
694 
695 
696 
697 
698 
699 
700 
701 
702 
703 
704 
705 
706 
707 
708 
709 
710 
711 
712 
713 
714 
715 
716 
717 
718 
719 
720 
721 
722 
723 
724 
725 
726 
727 
728 
729 
730 
731 
732 
733 
734 
735 
736 
737 
738 
739 
740 
741 
742 
743 
744 
745 
746 
747 
748 
749 
750 
751 
752 
753 
754 
755 
756 
757 
758 
759 
760 
761 
762 
763 
764 
765 
766 
767 
768 
769 
770 
771 
772 
773 
774 
775 
776 
777 
778 
779 
780 
781 
782 
783 
784 
785 
786 
787 
788 
789 
790 
791 
792 
793 
794 
795 
796 
797 
798 
799 
800 
801 
802 
803 
804 
805 
806 
807 
808 
809 
810 
811 
812 
813 
814 
815 
816 
817 
818 
819 
820 
821 
822 
823 
824 
825 
826 
827 
828 
829 
830 
831 
832 
833 
834 
835 
836 
837 
838 
839 
840 
841 
842 
843 
844 
845 
