# vtk DataFile Version 3.0
MOAB 5.0.1
ASCII
DATASET UNSTRUCTURED_GRID
POINTS 45 double
0 0.25 1
0.09435477687 0.3293194257 0.5460388006
0.09435477687 0.217635865 0.5298544278
0.08776253891 0.3361772771 0.5960506236
0 0.3350506824 0.5485531183
0 0.2233671216 0.5323687455
0.125 0.2500001492 1
0 0.3450380118 0.6614148387
0 0.2300253412 0.6492765592
0 0.2366835608 0.7661843728
0 0.3550253412 0.7742765592
0 0.2433417804 0.8830921864
0.1283476894 0.2843277197 0.6367131014
0.1283476894 0.1726441589 0.6205287286
0.04717738844 0.2763432737 0.5392037731
0.08776253891 0.1128101555 0.5636818781
0.04058515048 0.1715175642 0.5730312233
0.07454216077 0.1110824032 0.4771054357
0.02736477234 0.2814733727 0.5026391537
0.07454216077 0.3344495248 0.5094741813
0.04717738844 0.1646597129 0.5230194003
0.02736477234 0.1697898119 0.486454781
0.1217195492 0.2757421161 0.500124836
0.07454216077 0.222765964 0.4932898085
0.1217554514 0.1795020102 0.6705405516
0.08117030096 0.3696680068 0.8636937011
0.1217554514 0.3045020102 0.7955405516
0.08117030096 0.3563515676 0.7548780738
0.08117030096 0.3430351284 0.6460624466
0.08117030096 0.2446680068 0.8636937011
0.1544619855 0.3079673148 0.8223790133
0.1544619855 0.1829673148 0.8223790133
0.04058515048 0.3098340034 0.9318468505
0.07329168458 0.313299308 0.9586853123
0.07329168458 0.188299308 0.9586853123
0.04058515048 0.1848340034 0.9318468505
0.1138768351 0.2481333114 0.8905321628
0.04058515048 0.283201125 0.5892155961
0.08117030096 0.2313515676 0.6298780738
0.08776253891 0.2244937163 0.5798662508
0.08117030096 0.2446680068 0.7386937011
0.04058515048 0.1781757838 0.6899390369
0.04058515048 0.3031757838 0.8149390369
0.04058515048 0.2898593446 0.7061234097
0.04058515048 0.1781757838 0.8149390369
CELLS 150 450
2 4 7
2 6 0
2 0 11
2 0 34
2 0 35
2 34 35
2 6 34
2 11 35
2 0 32
2 0 33
2 32 33
2 33 34
2 34 36
2 0 36
2 33 36
2 36 32
2 36 35
2 32 35
2 33 6
2 32 11
2 3 1
2 1 14
2 1 19
2 14 19
2 1 22
2 1 2
2 22 2
2 1 23
2 23 22
2 23 2
2 14 23
2 14 2
2 19 22
2 19 23
2 3 14
2 1 39
2 39 2
2 3 39
2 14 39
2 17 2
2 17 22
2 17 23
2 14 20
2 17 14
2 15 2
2 15 14
2 13 39
2 15 39
2 12 3
2 13 3
2 28 3
2 12 28
2 28 37
2 37 3
2 37 14
2 28 38
2 38 3
2 38 12
2 13 38
2 39 38
2 37 38
2 39 37
2 5 4
2 5 8
2 8 7
2 5 18
2 18 4
2 4 14
2 5 14
2 18 14
2 37 5
2 4 37
2 37 7
2 8 37
2 5 20
2 5 21
2 20 21
2 21 14
2 18 21
2 5 16
2 16 20
2 14 16
2 37 16
2 16 8
2 7 10
2 8 9
2 9 10
2 37 43
2 43 7
2 8 43
2 43 10
2 9 43
2 41 9
2 43 41
2 41 8
2 41 37
2 41 16
2 11 9
2 9 42
2 42 41
2 42 43
2 44 9
2 42 44
2 44 41
2 10 42
2 11 44
2 11 42
2 35 44
2 32 42
2 44 32
2 24 38
2 18 19
2 23 21
2 23 18
2 16 39
2 38 16
2 41 38
2 29 31
2 29 26
2 40 26
2 40 24
2 40 29
2 31 35
2 29 35
2 44 29
2 40 41
2 40 44
2 38 40
2 24 27
2 38 27
2 27 40
2 42 25
2 26 25
2 25 29
2 29 30
2 32 30
2 29 32
2 40 25
2 40 42
2 27 42
2 29 42
2 27 43
2 28 43
2 38 43
2 41 27
2 29 36
2 36 31
2 30 36
2 33 30
2 31 34
CELL_TYPES 150
3
3
3
3
3
3
3
3
3
3
3
3
3
3
3
3
3
3
3
3
3
3
3
3
3
3
3
3
3
3
3
3
3
3
3
3
3
3
3
3
3
3
3
3
3
3
3
3
3
3
3
3
3
3
3
3
3
3
3
3
3
3
3
3
3
3
3
3
3
3
3
3
3
3
3
3
3
3
3
3
3
3
3
3
3
3
3
3
3
3
3
3
3
3
3
3
3
3
3
3
3
3
3
3
3
3
3
3
3
3
3
3
3
3
3
3
3
3
3
3
3
3
3
3
3
3
3
3
3
3
3
3
3
3
3
3
3
3
3
3
3
3
3
3
3
3
3
3
3
3
POINT_DATA 45
SCALARS GLOBAL_ID int 1
LOOKUP_TABLE default
127 
395 
396 
397 
486 
487 
550 
602 
603 
604 
605 
609 
1101 
1129 
1535 
1537 
1540 
3287 
3307 
3309 
3311 
3312 
3316 
3317 
4524 
4560 
4563 
4565 
4567 
4595 
4596 
4599 
4601 
4603 
4605 
4606 
4616 
4676 
4677 
4678 
4689 
4690 
4691 
4692 
4693 
SCALARS LOCAL_ID_L1 int 1
LOOKUP_TABLE default
0 
1 
2 
3 
4 
5 
6 
7 
8 
9 
10 
11 
12 
13 
14 
15 
16 
17 
18 
19 
20 
21 
22 
23 
24 
25 
26 
27 
28 
29 
30 
31 
32 
33 
34 
35 
36 
37 
38 
39 
40 
41 
42 
43 
44 
CELL_DATA 150
SCALARS GLOBAL_ID int 1
LOOKUP_TABLE default
4055 
4578 
4581 
4582 
4585 
4586 
4592 
4593 
4597 
4600 
4601 
4602 
4603 
4604 
4605 
4606 
4607 
4608 
4609 
4610 
10445 
10446 
10449 
10450 
10452 
10455 
10456 
10457 
10458 
10459 
10460 
10461 
10462 
10463 
10479 
10480 
10481 
10483 
10484 
10495 
10496 
10497 
10501 
10502 
10507 
10509 
10521 
10522 
10523 
10528 
10530 
10532 
10533 
10535 
10536 
10538 
10539 
10540 
10541 
10542 
10543 
10544 
12058 
12059 
12060 
12061 
12062 
12063 
12064 
12065 
12069 
12070 
12071 
12073 
12077 
12080 
12081 
12082 
12083 
12084 
12086 
12087 
12089 
12090 
12476 
13159 
13160 
13163 
13164 
13165 
13166 
13167 
13169 
13170 
13171 
13172 
13173 
13176 
13177 
13178 
13179 
13180 
13181 
13182 
13184 
13185 
13186 
13196 
13197 
13198 
17693 
22405 
22407 
22408 
22409 
22438 
22440 
32041 
32046 
32051 
32053 
32055 
32067 
32068 
32076 
32086 
32088 
32101 
32103 
32104 
32105 
32236 
32237 
32241 
32244 
32245 
32247 
32250 
32251 
32252 
32253 
32259 
32260 
32261 
32262 
32380 
32381 
32382 
32389 
32408 
SCALARS LOCAL_ID_L1 int 1
LOOKUP_TABLE default
0 
1 
2 
3 
4 
5 
6 
7 
8 
9 
10 
11 
12 
13 
14 
15 
16 
17 
18 
19 
20 
21 
22 
23 
24 
25 
26 
27 
28 
29 
30 
31 
32 
33 
34 
35 
36 
37 
38 
39 
40 
41 
42 
43 
44 
45 
46 
47 
48 
49 
50 
51 
52 
53 
54 
55 
56 
57 
58 
59 
60 
61 
62 
63 
64 
65 
66 
67 
68 
69 
70 
71 
72 
73 
74 
75 
76 
77 
78 
79 
80 
81 
82 
83 
84 
85 
86 
87 
88 
89 
90 
91 
92 
93 
94 
95 
96 
97 
98 
99 
100 
101 
102 
103 
104 
105 
106 
107 
108 
109 
110 
111 
112 
113 
114 
115 
116 
117 
118 
119 
120 
121 
122 
123 
124 
125 
126 
127 
128 
129 
130 
131 
132 
133 
134 
135 
136 
137 
138 
139 
140 
141 
142 
143 
144 
145 
146 
147 
148 
149 
