# vtk DataFile Version 3.0
MOAB 5.0.1
ASCII
DATASET UNSTRUCTURED_GRID
POINTS 216 double
0 0 0
1 0 0
2 0 0
3 0 0
4 0 0
5 0 0
0 1 0
1 1 0
2 1 0
3 1 0
4 1 0
5 1 0
0 2 0
1 2 0
2 2 0
3 2 0
4 2 0
5 2 0
0 3 0
1 3 0
2 3 0
3 3 0
4 3 0
5 3 0
0 4 0
1 4 0
2 4 0
3 4 0
4 4 0
5 4 0
0 5 0
1 5 0
2 5 0
3 5 0
4 5 0
5 5 0
0 0 1
1 0 1
2 0 1
3 0 1
4 0 1
5 0 1
0 1 1
1 1 1
2 1 1
3 1 1
4 1 1
5 1 1
0 2 1
1 2 1
2 2 1
3 2 1
4 2 1
5 2 1
0 3 1
1 3 1
2 3 1
3 3 1
4 3 1
5 3 1
0 4 1
1 4 1
2 4 1
3 4 1
4 4 1
5 4 1
0 5 1
1 5 1
2 5 1
3 5 1
4 5 1
5 5 1
0 0 2
1 0 2
2 0 2
3 0 2
4 0 2
5 0 2
0 1 2
1 1 2
2 1 2
3 1 2
4 1 2
5 1 2
0 2 2
1 2 2
2 2 2
3 2 2
4 2 2
5 2 2
0 3 2
1 3 2
2 3 2
3 3 2
4 3 2
5 3 2
0 4 2
1 4 2
2 4 2
3 4 2
4 4 2
5 4 2
0 5 2
1 5 2
2 5 2
3 5 2
4 5 2
5 5 2
0 0 3
1 0 3
2 0 3
3 0 3
4 0 3
5 0 3
0 1 3
1 1 3
2 1 3
3 1 3
4 1 3
5 1 3
0 2 3
1 2 3
2 2 3
3 2 3
4 2 3
5 2 3
0 3 3
1 3 3
2 3 3
3 3 3
4 3 3
5 3 3
0 4 3
1 4 3
2 4 3
3 4 3
4 4 3
5 4 3
0 5 3
1 5 3
2 5 3
3 5 3
4 5 3
5 5 3
0 0 4
1 0 4
2 0 4
3 0 4
4 0 4
5 0 4
0 1 4
1 1 4
2 1 4
3 1 4
4 1 4
5 1 4
0 2 4
1 2 4
2 2 4
3 2 4
4 2 4
5 2 4
0 3 4
1 3 4
2 3 4
3 3 4
4 3 4
5 3 4
0 4 4
1 4 4
2 4 4
3 4 4
4 4 4
5 4 4
0 5 4
1 5 4
2 5 4
3 5 4
4 5 4
5 5 4
0 0 5
1 0 5
2 0 5
3 0 5
4 0 5
5 0 5
0 1 5
1 1 5
2 1 5
3 1 5
4 1 5
5 1 5
0 2 5
1 2 5
2 2 5
3 2 5
4 2 5
5 2 5
0 3 5
1 3 5
2 3 5
3 3 5
4 3 5
5 3 5
0 4 5
1 4 5
2 4 5
3 4 5
4 4 5
5 4 5
0 5 5
1 5 5
2 5 5
3 5 5
4 5 5
5 5 5
CELLS 1115 4995
2 0 1
2 1 37
2 37 36
2 36 0
2 6 0
2 36 42
2 42 6
2 6 7
2 7 1
2 7 43
2 37 43
2 43 42
2 1 2
2 2 38
2 38 37
2 7 8
2 8 2
2 8 44
2 38 44
2 44 43
2 2 3
2 3 39
2 39 38
2 8 9
2 9 3
2 9 45
2 39 45
2 45 44
2 3 4
2 4 40
2 40 39
2 9 10
2 10 4
2 10 46
2 40 46
2 46 45
2 4 5
2 5 41
2 41 40
2 10 11
2 11 5
2 11 47
2 41 47
2 47 46
2 12 6
2 42 48
2 48 12
2 12 13
2 13 7
2 13 49
2 43 49
2 49 48
2 13 14
2 14 8
2 14 50
2 44 50
2 50 49
2 14 15
2 15 9
2 15 51
2 45 51
2 51 50
2 15 16
2 16 10
2 16 52
2 46 52
2 52 51
2 16 17
2 17 11
2 17 53
2 47 53
2 53 52
2 18 12
2 48 54
2 54 18
2 18 19
2 19 13
2 19 55
2 49 55
2 55 54
2 19 20
2 20 14
2 20 56
2 50 56
2 56 55
2 20 21
2 21 15
2 21 57
2 51 57
2 57 56
2 21 22
2 22 16
2 22 58
2 52 58
2 58 57
2 22 23
2 23 17
2 23 59
2 53 59
2 59 58
2 24 18
2 54 60
2 60 24
2 24 25
2 25 19
2 25 61
2 55 61
2 61 60
2 25 26
2 26 20
2 26 62
2 56 62
2 62 61
2 26 27
2 27 21
2 27 63
2 57 63
2 63 62
2 27 28
2 28 22
2 28 64
2 58 64
2 64 63
2 28 29
2 29 23
2 29 65
2 59 65
2 65 64
2 30 24
2 60 66
2 66 30
2 30 31
2 31 25
2 31 67
2 61 67
2 67 66
2 31 32
2 32 26
2 32 68
2 62 68
2 68 67
2 32 33
2 33 27
2 33 69
2 63 69
2 69 68
2 33 34
2 34 28
2 34 70
2 64 70
2 70 69
2 34 35
2 35 29
2 35 71
2 65 71
2 71 70
2 37 73
2 73 72
2 72 36
2 72 78
2 78 42
2 43 79
2 73 79
2 79 78
2 38 74
2 74 73
2 44 80
2 74 80
2 80 79
2 39 75
2 75 74
2 45 81
2 75 81
2 81 80
2 40 76
2 76 75
2 46 82
2 76 82
2 82 81
2 41 77
2 77 76
2 47 83
2 77 83
2 83 82
2 78 84
2 84 48
2 49 85
2 79 85
2 85 84
2 50 86
2 80 86
2 86 85
2 51 87
2 81 87
2 87 86
2 52 88
2 82 88
2 88 87
2 53 89
2 83 89
2 89 88
2 84 90
2 90 54
2 55 91
2 85 91
2 91 90
2 56 92
2 86 92
2 92 91
2 57 93
2 87 93
2 93 92
2 58 94
2 88 94
2 94 93
2 59 95
2 89 95
2 95 94
2 90 96
2 96 60
2 61 97
2 91 97
2 97 96
2 62 98
2 92 98
2 98 97
2 63 99
2 93 99
2 99 98
2 64 100
2 94 100
2 100 99
2 65 101
2 95 101
2 101 100
2 96 102
2 102 66
2 67 103
2 97 103
2 103 102
2 68 104
2 98 104
2 104 103
2 69 105
2 99 105
2 105 104
2 70 106
2 100 106
2 106 105
2 71 107
2 101 107
2 107 106
2 73 109
2 109 108
2 108 72
2 108 114
2 114 78
2 79 115
2 109 115
2 115 114
2 74 110
2 110 109
2 80 116
2 110 116
2 116 115
2 75 111
2 111 110
2 81 117
2 111 117
2 117 116
2 76 112
2 112 111
2 82 118
2 112 118
2 118 117
2 77 113
2 113 112
2 83 119
2 113 119
2 119 118
2 114 120
2 120 84
2 85 121
2 115 121
2 121 120
2 86 122
2 116 122
2 122 121
2 87 123
2 117 123
2 123 122
2 88 124
2 118 124
2 124 123
2 89 125
2 119 125
2 125 124
2 120 126
2 126 90
2 91 127
2 121 127
2 127 126
2 92 128
2 122 128
2 128 127
2 93 129
2 123 129
2 129 128
2 94 130
2 124 130
2 130 129
2 95 131
2 125 131
2 131 130
2 126 132
2 132 96
2 97 133
2 127 133
2 133 132
2 98 134
2 128 134
2 134 133
2 99 135
2 129 135
2 135 134
2 100 136
2 130 136
2 136 135
2 101 137
2 131 137
2 137 136
2 132 138
2 138 102
2 103 139
2 133 139
2 139 138
2 104 140
2 134 140
2 140 139
2 105 141
2 135 141
2 141 140
2 106 142
2 136 142
2 142 141
2 107 143
2 137 143
2 143 142
2 109 145
2 145 144
2 144 108
2 144 150
2 150 114
2 115 151
2 145 151
2 151 150
2 110 146
2 146 145
2 116 152
2 146 152
2 152 151
2 111 147
2 147 146
2 117 153
2 147 153
2 153 152
2 112 148
2 148 147
2 118 154
2 148 154
2 154 153
2 113 149
2 149 148
2 119 155
2 149 155
2 155 154
2 150 156
2 156 120
2 121 157
2 151 157
2 157 156
2 122 158
2 152 158
2 158 157
2 123 159
2 153 159
2 159 158
2 124 160
2 154 160
2 160 159
2 125 161
2 155 161
2 161 160
2 156 162
2 162 126
2 127 163
2 157 163
2 163 162
2 128 164
2 158 164
2 164 163
2 129 165
2 159 165
2 165 164
2 130 166
2 160 166
2 166 165
2 131 167
2 161 167
2 167 166
2 162 168
2 168 132
2 133 169
2 163 169
2 169 168
2 134 170
2 164 170
2 170 169
2 135 171
2 165 171
2 171 170
2 136 172
2 166 172
2 172 171
2 137 173
2 167 173
2 173 172
2 168 174
2 174 138
2 139 175
2 169 175
2 175 174
2 140 176
2 170 176
2 176 175
2 141 177
2 171 177
2 177 176
2 142 178
2 172 178
2 178 177
2 143 179
2 173 179
2 179 178
2 145 181
2 181 180
2 180 144
2 180 186
2 186 150
2 151 187
2 181 187
2 187 186
2 146 182
2 182 181
2 152 188
2 182 188
2 188 187
2 147 183
2 183 182
2 153 189
2 183 189
2 189 188
2 148 184
2 184 183
2 154 190
2 184 190
2 190 189
2 149 185
2 185 184
2 155 191
2 185 191
2 191 190
2 186 192
2 192 156
2 157 193
2 187 193
2 193 192
2 158 194
2 188 194
2 194 193
2 159 195
2 189 195
2 195 194
2 160 196
2 190 196
2 196 195
2 161 197
2 191 197
2 197 196
2 192 198
2 198 162
2 163 199
2 193 199
2 199 198
2 164 200
2 194 200
2 200 199
2 165 201
2 195 201
2 201 200
2 166 202
2 196 202
2 202 201
2 167 203
2 197 203
2 203 202
2 198 204
2 204 168
2 169 205
2 199 205
2 205 204
2 170 206
2 200 206
2 206 205
2 171 207
2 201 207
2 207 206
2 172 208
2 202 208
2 208 207
2 173 209
2 203 209
2 209 208
2 204 210
2 210 174
2 175 211
2 205 211
2 211 210
2 176 212
2 206 212
2 212 211
2 177 213
2 207 213
2 213 212
2 178 214
2 208 214
2 214 213
2 179 215
2 209 215
2 215 214
4 0 1 37 36
4 1 7 43 37
4 7 6 42 43
4 6 0 36 42
4 0 6 7 1
4 36 37 43 42
4 1 2 38 37
4 2 8 44 38
4 8 7 43 44
4 1 7 8 2
4 37 38 44 43
4 2 3 39 38
4 3 9 45 39
4 9 8 44 45
4 2 8 9 3
4 38 39 45 44
4 3 4 40 39
4 4 10 46 40
4 10 9 45 46
4 3 9 10 4
4 39 40 46 45
4 4 5 41 40
4 5 11 47 41
4 11 10 46 47
4 4 10 11 5
4 40 41 47 46
4 7 13 49 43
4 13 12 48 49
4 12 6 42 48
4 6 12 13 7
4 42 43 49 48
4 8 14 50 44
4 14 13 49 50
4 7 13 14 8
4 43 44 50 49
4 9 15 51 45
4 15 14 50 51
4 8 14 15 9
4 44 45 51 50
4 10 16 52 46
4 16 15 51 52
4 9 15 16 10
4 45 46 52 51
4 11 17 53 47
4 17 16 52 53
4 10 16 17 11
4 46 47 53 52
4 13 19 55 49
4 19 18 54 55
4 18 12 48 54
4 12 18 19 13
4 48 49 55 54
4 14 20 56 50
4 20 19 55 56
4 13 19 20 14
4 49 50 56 55
4 15 21 57 51
4 21 20 56 57
4 14 20 21 15
4 50 51 57 56
4 16 22 58 52
4 22 21 57 58
4 15 21 22 16
4 51 52 58 57
4 17 23 59 53
4 23 22 58 59
4 16 22 23 17
4 52 53 59 58
4 19 25 61 55
4 25 24 60 61
4 24 18 54 60
4 18 24 25 19
4 54 55 61 60
4 20 26 62 56
4 26 25 61 62
4 19 25 26 20
4 55 56 62 61
4 21 27 63 57
4 27 26 62 63
4 20 26 27 21
4 56 57 63 62
4 22 28 64 58
4 28 27 63 64
4 21 27 28 22
4 57 58 64 63
4 23 29 65 59
4 29 28 64 65
4 22 28 29 23
4 58 59 65 64
4 25 31 67 61
4 31 30 66 67
4 30 24 60 66
4 24 30 31 25
4 60 61 67 66
4 26 32 68 62
4 32 31 67 68
4 25 31 32 26
4 61 62 68 67
4 27 33 69 63
4 33 32 68 69
4 26 32 33 27
4 62 63 69 68
4 28 34 70 64
4 34 33 69 70
4 27 33 34 28
4 63 64 70 69
4 29 35 71 65
4 35 34 70 71
4 28 34 35 29
4 64 65 71 70
4 36 37 73 72
4 37 43 79 73
4 43 42 78 79
4 42 36 72 78
4 72 73 79 78
4 37 38 74 73
4 38 44 80 74
4 44 43 79 80
4 73 74 80 79
4 38 39 75 74
4 39 45 81 75
4 45 44 80 81
4 74 75 81 80
4 39 40 76 75
4 40 46 82 76
4 46 45 81 82
4 75 76 82 81
4 40 41 77 76
4 41 47 83 77
4 47 46 82 83
4 76 77 83 82
4 43 49 85 79
4 49 48 84 85
4 48 42 78 84
4 78 79 85 84
4 44 50 86 80
4 50 49 85 86
4 79 80 86 85
4 45 51 87 81
4 51 50 86 87
4 80 81 87 86
4 46 52 88 82
4 52 51 87 88
4 81 82 88 87
4 47 53 89 83
4 53 52 88 89
4 82 83 89 88
4 49 55 91 85
4 55 54 90 91
4 54 48 84 90
4 84 85 91 90
4 50 56 92 86
4 56 55 91 92
4 85 86 92 91
4 51 57 93 87
4 57 56 92 93
4 86 87 93 92
4 52 58 94 88
4 58 57 93 94
4 87 88 94 93
4 53 59 95 89
4 59 58 94 95
4 88 89 95 94
4 55 61 97 91
4 61 60 96 97
4 60 54 90 96
4 90 91 97 96
4 56 62 98 92
4 62 61 97 98
4 91 92 98 97
4 57 63 99 93
4 63 62 98 99
4 92 93 99 98
4 58 64 100 94
4 64 63 99 100
4 93 94 100 99
4 59 65 101 95
4 65 64 100 101
4 94 95 101 100
4 61 67 103 97
4 67 66 102 103
4 66 60 96 102
4 96 97 103 102
4 62 68 104 98
4 68 67 103 104
4 97 98 104 103
4 63 69 105 99
4 69 68 104 105
4 98 99 105 104
4 64 70 106 100
4 70 69 105 106
4 99 100 106 105
4 65 71 107 101
4 71 70 106 107
4 100 101 107 106
4 72 73 109 108
4 73 79 115 109
4 79 78 114 115
4 78 72 108 114
4 108 109 115 114
4 73 74 110 109
4 74 80 116 110
4 80 79 115 116
4 109 110 116 115
4 74 75 111 110
4 75 81 117 111
4 81 80 116 117
4 110 111 117 116
4 75 76 112 111
4 76 82 118 112
4 82 81 117 118
4 111 112 118 117
4 76 77 113 112
4 77 83 119 113
4 83 82 118 119
4 112 113 119 118
4 79 85 121 115
4 85 84 120 121
4 84 78 114 120
4 114 115 121 120
4 80 86 122 116
4 86 85 121 122
4 115 116 122 121
4 81 87 123 117
4 87 86 122 123
4 116 117 123 122
4 82 88 124 118
4 88 87 123 124
4 117 118 124 123
4 83 89 125 119
4 89 88 124 125
4 118 119 125 124
4 85 91 127 121
4 91 90 126 127
4 90 84 120 126
4 120 121 127 126
4 86 92 128 122
4 92 91 127 128
4 121 122 128 127
4 87 93 129 123
4 93 92 128 129
4 122 123 129 128
4 88 94 130 124
4 94 93 129 130
4 123 124 130 129
4 89 95 131 125
4 95 94 130 131
4 124 125 131 130
4 91 97 133 127
4 97 96 132 133
4 96 90 126 132
4 126 127 133 132
4 92 98 134 128
4 98 97 133 134
4 127 128 134 133
4 93 99 135 129
4 99 98 134 135
4 128 129 135 134
4 94 100 136 130
4 100 99 135 136
4 129 130 136 135
4 95 101 137 131
4 101 100 136 137
4 130 131 137 136
4 97 103 139 133
4 103 102 138 139
4 102 96 132 138
4 132 133 139 138
4 98 104 140 134
4 104 103 139 140
4 133 134 140 139
4 99 105 141 135
4 105 104 140 141
4 134 135 141 140
4 100 106 142 136
4 106 105 141 142
4 135 136 142 141
4 101 107 143 137
4 107 106 142 143
4 136 137 143 142
4 108 109 145 144
4 109 115 151 145
4 115 114 150 151
4 114 108 144 150
4 144 145 151 150
4 109 110 146 145
4 110 116 152 146
4 116 115 151 152
4 145 146 152 151
4 110 111 147 146
4 111 117 153 147
4 117 116 152 153
4 146 147 153 152
4 111 112 148 147
4 112 118 154 148
4 118 117 153 154
4 147 148 154 153
4 112 113 149 148
4 113 119 155 149
4 119 118 154 155
4 148 149 155 154
4 115 121 157 151
4 121 120 156 157
4 120 114 150 156
4 150 151 157 156
4 116 122 158 152
4 122 121 157 158
4 151 152 158 157
4 117 123 159 153
4 123 122 158 159
4 152 153 159 158
4 118 124 160 154
4 124 123 159 160
4 153 154 160 159
4 119 125 161 155
4 125 124 160 161
4 154 155 161 160
4 121 127 163 157
4 127 126 162 163
4 126 120 156 162
4 156 157 163 162
4 122 128 164 158
4 128 127 163 164
4 157 158 164 163
4 123 129 165 159
4 129 128 164 165
4 158 159 165 164
4 124 130 166 160
4 130 129 165 166
4 159 160 166 165
4 125 131 167 161
4 131 130 166 167
4 160 161 167 166
4 127 133 169 163
4 133 132 168 169
4 132 126 162 168
4 162 163 169 168
4 128 134 170 164
4 134 133 169 170
4 163 164 170 169
4 129 135 171 165
4 135 134 170 171
4 164 165 171 170
4 130 136 172 166
4 136 135 171 172
4 165 166 172 171
4 131 137 173 167
4 137 136 172 173
4 166 167 173 172
4 133 139 175 169
4 139 138 174 175
4 138 132 168 174
4 168 169 175 174
4 134 140 176 170
4 140 139 175 176
4 169 170 176 175
4 135 141 177 171
4 141 140 176 177
4 170 171 177 176
4 136 142 178 172
4 142 141 177 178
4 171 172 178 177
4 137 143 179 173
4 143 142 178 179
4 172 173 179 178
4 144 145 181 180
4 145 151 187 181
4 151 150 186 187
4 150 144 180 186
4 180 181 187 186
4 145 146 182 181
4 146 152 188 182
4 152 151 187 188
4 181 182 188 187
4 146 147 183 182
4 147 153 189 183
4 153 152 188 189
4 182 183 189 188
4 147 148 184 183
4 148 154 190 184
4 154 153 189 190
4 183 184 190 189
4 148 149 185 184
4 149 155 191 185
4 155 154 190 191
4 184 185 191 190
4 151 157 193 187
4 157 156 192 193
4 156 150 186 192
4 186 187 193 192
4 152 158 194 188
4 158 157 193 194
4 187 188 194 193
4 153 159 195 189
4 159 158 194 195
4 188 189 195 194
4 154 160 196 190
4 160 159 195 196
4 189 190 196 195
4 155 161 197 191
4 161 160 196 197
4 190 191 197 196
4 157 163 199 193
4 163 162 198 199
4 162 156 192 198
4 192 193 199 198
4 158 164 200 194
4 164 163 199 200
4 193 194 200 199
4 159 165 201 195
4 165 164 200 201
4 194 195 201 200
4 160 166 202 196
4 166 165 201 202
4 195 196 202 201
4 161 167 203 197
4 167 166 202 203
4 196 197 203 202
4 163 169 205 199
4 169 168 204 205
4 168 162 198 204
4 198 199 205 204
4 164 170 206 200
4 170 169 205 206
4 199 200 206 205
4 165 171 207 201
4 171 170 206 207
4 200 201 207 206
4 166 172 208 202
4 172 171 207 208
4 201 202 208 207
4 167 173 209 203
4 173 172 208 209
4 202 203 209 208
4 169 175 211 205
4 175 174 210 211
4 174 168 204 210
4 204 205 211 210
4 170 176 212 206
4 176 175 211 212
4 205 206 212 211
4 171 177 213 207
4 177 176 212 213
4 206 207 213 212
4 172 178 214 208
4 178 177 213 214
4 207 208 214 213
4 173 179 215 209
4 179 178 214 215
4 208 209 215 214
8 0 1 7 6 36 37 43 42
8 1 2 8 7 37 38 44 43
8 2 3 9 8 38 39 45 44
8 3 4 10 9 39 40 46 45
8 4 5 11 10 40 41 47 46
8 6 7 13 12 42 43 49 48
8 7 8 14 13 43 44 50 49
8 8 9 15 14 44 45 51 50
8 9 10 16 15 45 46 52 51
8 10 11 17 16 46 47 53 52
8 12 13 19 18 48 49 55 54
8 13 14 20 19 49 50 56 55
8 14 15 21 20 50 51 57 56
8 15 16 22 21 51 52 58 57
8 16 17 23 22 52 53 59 58
8 18 19 25 24 54 55 61 60
8 19 20 26 25 55 56 62 61
8 20 21 27 26 56 57 63 62
8 21 22 28 27 57 58 64 63
8 22 23 29 28 58 59 65 64
8 24 25 31 30 60 61 67 66
8 25 26 32 31 61 62 68 67
8 26 27 33 32 62 63 69 68
8 27 28 34 33 63 64 70 69
8 28 29 35 34 64 65 71 70
8 36 37 43 42 72 73 79 78
8 37 38 44 43 73 74 80 79
8 38 39 45 44 74 75 81 80
8 39 40 46 45 75 76 82 81
8 40 41 47 46 76 77 83 82
8 42 43 49 48 78 79 85 84
8 43 44 50 49 79 80 86 85
8 44 45 51 50 80 81 87 86
8 45 46 52 51 81 82 88 87
8 46 47 53 52 82 83 89 88
8 48 49 55 54 84 85 91 90
8 49 50 56 55 85 86 92 91
8 50 51 57 56 86 87 93 92
8 51 52 58 57 87 88 94 93
8 52 53 59 58 88 89 95 94
8 54 55 61 60 90 91 97 96
8 55 56 62 61 91 92 98 97
8 56 57 63 62 92 93 99 98
8 57 58 64 63 93 94 100 99
8 58 59 65 64 94 95 101 100
8 60 61 67 66 96 97 103 102
8 61 62 68 67 97 98 104 103
8 62 63 69 68 98 99 105 104
8 63 64 70 69 99 100 106 105
8 64 65 71 70 100 101 107 106
8 72 73 79 78 108 109 115 114
8 73 74 80 79 109 110 116 115
8 74 75 81 80 110 111 117 116
8 75 76 82 81 111 112 118 117
8 76 77 83 82 112 113 119 118
8 78 79 85 84 114 115 121 120
8 79 80 86 85 115 116 122 121
8 80 81 87 86 116 117 123 122
8 81 82 88 87 117 118 124 123
8 82 83 89 88 118 119 125 124
8 84 85 91 90 120 121 127 126
8 85 86 92 91 121 122 128 127
8 86 87 93 92 122 123 129 128
8 87 88 94 93 123 124 130 129
8 88 89 95 94 124 125 131 130
8 90 91 97 96 126 127 133 132
8 91 92 98 97 127 128 134 133
8 92 93 99 98 128 129 135 134
8 93 94 100 99 129 130 136 135
8 94 95 101 100 130 131 137 136
8 96 97 103 102 132 133 139 138
8 97 98 104 103 133 134 140 139
8 98 99 105 104 134 135 141 140
8 99 100 106 105 135 136 142 141
8 100 101 107 106 136 137 143 142
8 108 109 115 114 144 145 151 150
8 109 110 116 115 145 146 152 151
8 110 111 117 116 146 147 153 152
8 111 112 118 117 147 148 154 153
8 112 113 119 118 148 149 155 154
8 114 115 121 120 150 151 157 156
8 115 116 122 121 151 152 158 157
8 116 117 123 122 152 153 159 158
8 117 118 124 123 153 154 160 159
8 118 119 125 124 154 155 161 160
8 120 121 127 126 156 157 163 162
8 121 122 128 127 157 158 164 163
8 122 123 129 128 158 159 165 164
8 123 124 130 129 159 160 166 165
8 124 125 131 130 160 161 167 166
8 126 127 133 132 162 163 169 168
8 127 128 134 133 163 164 170 169
8 128 129 135 134 164 165 171 170
8 129 130 136 135 165 166 172 171
8 130 131 137 136 166 167 173 172
8 132 133 139 138 168 169 175 174
8 133 134 140 139 169 170 176 175
8 134 135 141 140 170 171 177 176
8 135 136 142 141 171 172 178 177
8 136 137 143 142 172 173 179 178
8 144 145 151 150 180 181 187 186
8 145 146 152 151 181 182 188 187
8 146 147 153 152 182 183 189 188
8 147 148 154 153 183 184 190 189
8 148 149 155 154 184 185 191 190
8 150 151 157 156 186 187 193 192
8 151 152 158 157 187 188 194 193
8 152 153 159 158 188 189 195 194
8 153 154 160 159 189 190 196 195
8 154 155 161 160 190 191 197 196
8 156 157 163 162 192 193 199 198
8 157 158 164 163 193 194 200 199
8 158 159 165 164 194 195 201 200
8 159 160 166 165 195 196 202 201
8 160 161 167 166 196 197 203 202
8 162 163 169 168 198 199 205 204
8 163 164 170 169 199 200 206 205
8 164 165 171 170 200 201 207 206
8 165 166 172 171 201 202 208 207
8 166 167 173 172 202 203 209 208
8 168 169 175 174 204 205 211 210
8 169 170 176 175 205 206 212 211
8 170 171 177 176 206 207 213 212
8 171 172 178 177 207 208 214 213
8 172 173 179 178 208 209 215 214
CELL_TYPES 1115
3
3
3
3
3
3
3
3
3
3
3
3
3
3
3
3
3
3
3
3
3
3
3
3
3
3
3
3
3
3
3
3
3
3
3
3
3
3
3
3
3
3
3
3
3
3
3
3
3
3
3
3
3
3
3
3
3
3
3
3
3
3
3
3
3
3
3
3
3
3
3
3
3
3
3
3
3
3
3
3
3
3
3
3
3
3
3
3
3
3
3
3
3
3
3
3
3
3
3
3
3
3
3
3
3
3
3
3
3
3
3
3
3
3
3
3
3
3
3
3
3
3
3
3
3
3
3
3
3
3
3
3
3
3
3
3
3
3
3
3
3
3
3
3
3
3
3
3
3
3
3
3
3
3
3
3
3
3
3
3
3
3
3
3
3
3
3
3
3
3
3
3
3
3
3
3
3
3
3
3
3
3
3
3
3
3
3
3
3
3
3
3
3
3
3
3
3
3
3
3
3
3
3
3
3
3
3
3
3
3
3
3
3
3
3
3
3
3
3
3
3
3
3
3
3
3
3
3
3
3
3
3
3
3
3
3
3
3
3
3
3
3
3
3
3
3
3
3
3
3
3
3
3
3
3
3
3
3
3
3
3
3
3
3
3
3
3
3
3
3
3
3
3
3
3
3
3
3
3
3
3
3
3
3
3
3
3
3
3
3
3
3
3
3
3
3
3
3
3
3
3
3
3
3
3
3
3
3
3
3
3
3
3
3
3
3
3
3
3
3
3
3
3
3
3
3
3
3
3
3
3
3
3
3
3
3
3
3
3
3
3
3
3
3
3
3
3
3
3
3
3
3
3
3
3
3
3
3
3
3
3
3
3
3
3
3
3
3
3
3
3
3
3
3
3
3
3
3
3
3
3
3
3
3
3
3
3
3
3
3
3
3
3
3
3
3
3
3
3
3
3
3
3
3
3
3
3
3
3
3
3
3
3
3
3
3
3
3
3
3
3
3
3
3
3
3
3
3
3
3
3
3
3
3
3
3
3
3
3
3
3
3
3
3
3
3
3
3
3
3
3
3
3
3
3
3
3
3
3
3
3
3
3
3
3
3
3
3
3
3
3
3
3
3
3
3
3
3
3
3
3
3
3
3
3
3
3
3
3
3
3
3
3
3
3
3
3
3
3
3
3
3
3
3
3
3
3
3
3
3
3
3
3
3
3
3
3
3
3
3
3
3
3
3
3
3
3
3
3
3
3
3
3
3
3
3
3
3
3
3
9
9
9
9
9
9
9
9
9
9
9
9
9
9
9
9
9
9
9
9
9
9
9
9
9
9
9
9
9
9
9
9
9
9
9
9
9
9
9
9
9
9
9
9
9
9
9
9
9
9
9
9
9
9
9
9
9
9
9
9
9
9
9
9
9
9
9
9
9
9
9
9
9
9
9
9
9
9
9
9
9
9
9
9
9
9
9
9
9
9
9
9
9
9
9
9
9
9
9
9
9
9
9
9
9
9
9
9
9
9
9
9
9
9
9
9
9
9
9
9
9
9
9
9
9
9
9
9
9
9
9
9
9
9
9
9
9
9
9
9
9
9
9
9
9
9
9
9
9
9
9
9
9
9
9
9
9
9
9
9
9
9
9
9
9
9
9
9
9
9
9
9
9
9
9
9
9
9
9
9
9
9
9
9
9
9
9
9
9
9
9
9
9
9
9
9
9
9
9
9
9
9
9
9
9
9
9
9
9
9
9
9
9
9
9
9
9
9
9
9
9
9
9
9
9
9
9
9
9
9
9
9
9
9
9
9
9
9
9
9
9
9
9
9
9
9
9
9
9
9
9
9
9
9
9
9
9
9
9
9
9
9
9
9
9
9
9
9
9
9
9
9
9
9
9
9
9
9
9
9
9
9
9
9
9
9
9
9
9
9
9
9
9
9
9
9
9
9
9
9
9
9
9
9
9
9
9
9
9
9
9
9
9
9
9
9
9
9
9
9
9
9
9
9
9
9
9
9
9
9
9
9
9
9
9
9
9
9
9
9
9
9
9
9
9
9
9
9
9
9
9
9
9
9
9
9
9
9
9
9
9
9
9
9
9
9
9
9
9
9
9
9
9
9
9
9
9
9
9
9
9
9
9
9
9
9
9
9
9
9
9
9
9
9
9
9
9
9
9
9
9
9
9
9
9
9
9
9
9
9
9
9
9
9
9
9
9
9
9
9
9
9
9
9
9
9
9
9
9
9
9
9
9
9
9
9
9
9
9
9
9
9
9
9
9
9
9
9
9
9
12
12
12
12
12
12
12
12
12
12
12
12
12
12
12
12
12
12
12
12
12
12
12
12
12
12
12
12
12
12
12
12
12
12
12
12
12
12
12
12
12
12
12
12
12
12
12
12
12
12
12
12
12
12
12
12
12
12
12
12
12
12
12
12
12
12
12
12
12
12
12
12
12
12
12
12
12
12
12
12
12
12
12
12
12
12
12
12
12
12
12
12
12
12
12
12
12
12
12
12
12
12
12
12
12
12
12
12
12
12
12
12
12
12
12
12
12
12
12
12
12
12
12
12
12
POINT_DATA 216
SCALARS GLOBAL_ID int 1
LOOKUP_TABLE default
0 
1 
2 
3 
4 
5 
6 
7 
8 
9 
10 
11 
12 
13 
14 
15 
16 
17 
18 
19 
20 
21 
22 
23 
24 
25 
26 
27 
28 
29 
30 
31 
32 
33 
34 
35 
36 
37 
38 
39 
40 
41 
42 
43 
44 
45 
46 
47 
48 
49 
50 
51 
52 
53 
54 
55 
56 
57 
58 
59 
60 
61 
62 
63 
64 
65 
66 
67 
68 
69 
70 
71 
72 
73 
74 
75 
76 
77 
78 
79 
80 
81 
82 
83 
84 
85 
86 
87 
88 
89 
90 
91 
92 
93 
94 
95 
96 
97 
98 
99 
100 
101 
102 
103 
104 
105 
106 
107 
108 
109 
110 
111 
112 
113 
114 
115 
116 
117 
118 
119 
120 
121 
122 
123 
124 
125 
126 
127 
128 
129 
130 
131 
132 
133 
134 
135 
136 
137 
138 
139 
140 
141 
142 
143 
144 
145 
146 
147 
148 
149 
150 
151 
152 
153 
154 
155 
156 
157 
158 
159 
160 
161 
162 
163 
164 
165 
166 
167 
168 
169 
170 
171 
172 
173 
174 
175 
176 
177 
178 
179 
180 
181 
182 
183 
184 
185 
186 
187 
188 
189 
190 
191 
192 
193 
194 
195 
196 
197 
198 
199 
200 
201 
202 
203 
204 
205 
206 
207 
208 
209 
210 
211 
212 
213 
214 
215 
SCALARS LOCAL_ID_L1-0 int 1
LOOKUP_TABLE default
0 
1 
0 
0 
0 
0 
2 
3 
0 
0 
0 
0 
4 
5 
0 
0 
0 
0 
0 
0 
0 
0 
0 
0 
0 
0 
0 
0 
0 
0 
0 
0 
0 
0 
0 
0 
6 
7 
0 
0 
0 
0 
8 
9 
0 
0 
0 
0 
10 
11 
0 
0 
0 
0 
0 
0 
0 
0 
0 
0 
0 
0 
0 
0 
0 
0 
0 
0 
0 
0 
0 
0 
12 
13 
0 
0 
0 
0 
14 
15 
0 
0 
0 
0 
16 
17 
0 
0 
0 
0 
0 
0 
0 
0 
0 
0 
0 
0 
0 
0 
0 
0 
0 
0 
0 
0 
0 
0 
0 
0 
0 
0 
0 
0 
0 
0 
0 
0 
0 
0 
0 
0 
0 
0 
0 
0 
0 
0 
0 
0 
0 
0 
0 
0 
0 
0 
0 
0 
0 
0 
0 
0 
0 
0 
0 
0 
0 
0 
0 
0 
0 
0 
0 
0 
0 
0 
0 
0 
0 
0 
0 
0 
0 
0 
0 
0 
0 
0 
0 
0 
0 
0 
0 
0 
0 
0 
0 
0 
0 
0 
0 
0 
0 
0 
0 
0 
0 
0 
0 
0 
0 
0 
0 
0 
0 
0 
0 
0 
0 
0 
0 
0 
0 
0 
0 
0 
0 
0 
0 
0 
0 
0 
0 
0 
0 
0 
SCALARS LOCAL_ID_L1-1 int 1
LOOKUP_TABLE default
0 
0 
0 
0 
0 
0 
0 
0 
0 
0 
0 
0 
0 
0 
0 
0 
0 
0 
0 
0 
0 
0 
0 
0 
0 
0 
0 
0 
0 
0 
0 
0 
0 
0 
0 
0 
0 
0 
0 
0 
0 
0 
0 
0 
0 
0 
0 
0 
0 
0 
0 
0 
0 
0 
0 
0 
0 
0 
0 
0 
0 
0 
0 
0 
0 
0 
0 
0 
0 
0 
0 
0 
0 
1 
0 
0 
0 
0 
2 
3 
0 
0 
0 
0 
4 
5 
0 
0 
0 
0 
0 
0 
0 
0 
0 
0 
0 
0 
0 
0 
0 
0 
0 
0 
0 
0 
0 
0 
6 
7 
0 
0 
0 
0 
8 
9 
0 
0 
0 
0 
10 
11 
0 
0 
0 
0 
0 
0 
0 
0 
0 
0 
0 
0 
0 
0 
0 
0 
0 
0 
0 
0 
0 
0 
0 
0 
0 
0 
0 
0 
0 
0 
0 
0 
0 
0 
0 
0 
0 
0 
0 
0 
0 
0 
0 
0 
0 
0 
0 
0 
0 
0 
0 
0 
0 
0 
0 
0 
0 
0 
0 
0 
0 
0 
0 
0 
0 
0 
0 
0 
0 
0 
0 
0 
0 
0 
0 
0 
0 
0 
0 
0 
0 
0 
0 
0 
0 
0 
0 
0 
0 
0 
0 
0 
0 
0 
SCALARS LOCAL_ID_L1-2 int 1
LOOKUP_TABLE default
0 
0 
0 
0 
0 
0 
0 
0 
0 
0 
0 
0 
0 
0 
0 
0 
0 
0 
0 
0 
0 
0 
0 
0 
0 
0 
0 
0 
0 
0 
0 
0 
0 
0 
0 
0 
0 
0 
0 
0 
0 
0 
0 
0 
0 
0 
0 
0 
0 
0 
0 
0 
0 
0 
0 
0 
0 
0 
0 
0 
0 
0 
0 
0 
0 
0 
0 
0 
0 
0 
0 
0 
0 
0 
0 
0 
0 
0 
0 
0 
0 
0 
0 
0 
0 
0 
0 
0 
0 
0 
0 
0 
0 
0 
0 
0 
0 
0 
0 
0 
0 
0 
0 
0 
0 
0 
0 
0 
0 
1 
0 
0 
0 
0 
2 
3 
0 
0 
0 
0 
4 
5 
0 
0 
0 
0 
0 
0 
0 
0 
0 
0 
0 
0 
0 
0 
0 
0 
0 
0 
0 
0 
0 
0 
6 
7 
0 
0 
0 
0 
8 
9 
0 
0 
0 
0 
10 
11 
0 
0 
0 
0 
0 
0 
0 
0 
0 
0 
0 
0 
0 
0 
0 
0 
0 
0 
0 
0 
0 
0 
12 
13 
0 
0 
0 
0 
14 
15 
0 
0 
0 
0 
16 
17 
0 
0 
0 
0 
0 
0 
0 
0 
0 
0 
0 
0 
0 
0 
0 
0 
0 
0 
0 
0 
0 
0 
SCALARS LOCAL_ID_L1-3 int 1
LOOKUP_TABLE default
0 
0 
0 
0 
0 
0 
0 
0 
0 
0 
0 
0 
0 
1 
0 
0 
0 
0 
2 
3 
0 
0 
0 
0 
0 
0 
0 
0 
0 
0 
0 
0 
0 
0 
0 
0 
0 
0 
0 
0 
0 
0 
0 
0 
0 
0 
0 
0 
4 
5 
0 
0 
0 
0 
6 
7 
0 
0 
0 
0 
0 
0 
0 
0 
0 
0 
0 
0 
0 
0 
0 
0 
0 
0 
0 
0 
0 
0 
0 
0 
0 
0 
0 
0 
8 
9 
0 
0 
0 
0 
10 
11 
0 
0 
0 
0 
0 
0 
0 
0 
0 
0 
0 
0 
0 
0 
0 
0 
0 
0 
0 
0 
0 
0 
0 
0 
0 
0 
0 
0 
0 
0 
0 
0 
0 
0 
0 
0 
0 
0 
0 
0 
0 
0 
0 
0 
0 
0 
0 
0 
0 
0 
0 
0 
0 
0 
0 
0 
0 
0 
0 
0 
0 
0 
0 
0 
0 
0 
0 
0 
0 
0 
0 
0 
0 
0 
0 
0 
0 
0 
0 
0 
0 
0 
0 
0 
0 
0 
0 
0 
0 
0 
0 
0 
0 
0 
0 
0 
0 
0 
0 
0 
0 
0 
0 
0 
0 
0 
0 
0 
0 
0 
0 
0 
0 
0 
0 
0 
0 
0 
0 
0 
0 
0 
0 
0 
SCALARS LOCAL_ID_L1-4 int 1
LOOKUP_TABLE default
0 
0 
0 
0 
0 
0 
0 
0 
0 
0 
0 
0 
0 
0 
0 
0 
0 
0 
0 
0 
0 
0 
0 
0 
0 
0 
0 
0 
0 
0 
0 
0 
0 
0 
0 
0 
0 
0 
0 
0 
0 
0 
0 
0 
0 
0 
0 
0 
0 
0 
0 
0 
0 
0 
0 
0 
0 
0 
0 
0 
0 
0 
0 
0 
0 
0 
0 
0 
0 
0 
0 
0 
0 
0 
0 
0 
0 
0 
0 
0 
0 
0 
0 
0 
0 
1 
0 
0 
0 
0 
2 
3 
0 
0 
0 
0 
0 
0 
0 
0 
0 
0 
0 
0 
0 
0 
0 
0 
0 
0 
0 
0 
0 
0 
0 
0 
0 
0 
0 
0 
4 
5 
0 
0 
0 
0 
6 
7 
0 
0 
0 
0 
0 
0 
0 
0 
0 
0 
0 
0 
0 
0 
0 
0 
0 
0 
0 
0 
0 
0 
0 
0 
0 
0 
0 
0 
0 
0 
0 
0 
0 
0 
0 
0 
0 
0 
0 
0 
0 
0 
0 
0 
0 
0 
0 
0 
0 
0 
0 
0 
0 
0 
0 
0 
0 
0 
0 
0 
0 
0 
0 
0 
0 
0 
0 
0 
0 
0 
0 
0 
0 
0 
0 
0 
0 
0 
0 
0 
0 
0 
0 
0 
0 
0 
0 
0 
SCALARS LOCAL_ID_L1-5 int 1
LOOKUP_TABLE default
0 
0 
0 
0 
0 
0 
0 
0 
0 
0 
0 
0 
0 
0 
0 
0 
0 
0 
0 
0 
0 
0 
0 
0 
0 
0 
0 
0 
0 
0 
0 
0 
0 
0 
0 
0 
0 
0 
0 
0 
0 
0 
0 
0 
0 
0 
0 
0 
0 
0 
0 
0 
0 
0 
0 
0 
0 
0 
0 
0 
0 
0 
0 
0 
0 
0 
0 
0 
0 
0 
0 
0 
0 
0 
0 
0 
0 
0 
0 
0 
0 
0 
0 
0 
0 
0 
0 
0 
0 
0 
0 
0 
0 
0 
0 
0 
0 
0 
0 
0 
0 
0 
0 
0 
0 
0 
0 
0 
0 
0 
0 
0 
0 
0 
0 
0 
0 
0 
0 
0 
0 
1 
0 
0 
0 
0 
2 
3 
0 
0 
0 
0 
0 
0 
0 
0 
0 
0 
0 
0 
0 
0 
0 
0 
0 
0 
0 
0 
0 
0 
0 
0 
0 
0 
0 
0 
4 
5 
0 
0 
0 
0 
6 
7 
0 
0 
0 
0 
0 
0 
0 
0 
0 
0 
0 
0 
0 
0 
0 
0 
0 
0 
0 
0 
0 
0 
0 
0 
0 
0 
0 
0 
8 
9 
0 
0 
0 
0 
10 
11 
0 
0 
0 
0 
0 
0 
0 
0 
0 
0 
0 
0 
0 
0 
0 
0 
SCALARS LOCAL_ID_L1-6 int 1
LOOKUP_TABLE default
0 
0 
0 
0 
0 
0 
0 
0 
0 
0 
0 
0 
0 
0 
0 
0 
0 
0 
0 
1 
0 
0 
0 
0 
2 
3 
0 
0 
0 
0 
4 
5 
0 
0 
0 
0 
0 
0 
0 
0 
0 
0 
0 
0 
0 
0 
0 
0 
0 
0 
0 
0 
0 
0 
6 
7 
0 
0 
0 
0 
8 
9 
0 
0 
0 
0 
10 
11 
0 
0 
0 
0 
0 
0 
0 
0 
0 
0 
0 
0 
0 
0 
0 
0 
0 
0 
0 
0 
0 
0 
12 
13 
0 
0 
0 
0 
14 
15 
0 
0 
0 
0 
16 
17 
0 
0 
0 
0 
0 
0 
0 
0 
0 
0 
0 
0 
0 
0 
0 
0 
0 
0 
0 
0 
0 
0 
0 
0 
0 
0 
0 
0 
0 
0 
0 
0 
0 
0 
0 
0 
0 
0 
0 
0 
0 
0 
0 
0 
0 
0 
0 
0 
0 
0 
0 
0 
0 
0 
0 
0 
0 
0 
0 
0 
0 
0 
0 
0 
0 
0 
0 
0 
0 
0 
0 
0 
0 
0 
0 
0 
0 
0 
0 
0 
0 
0 
0 
0 
0 
0 
0 
0 
0 
0 
0 
0 
0 
0 
0 
0 
0 
0 
0 
0 
0 
0 
0 
0 
0 
0 
0 
0 
0 
0 
0 
0 
SCALARS LOCAL_ID_L1-7 int 1
LOOKUP_TABLE default
0 
0 
0 
0 
0 
0 
0 
0 
0 
0 
0 
0 
0 
0 
0 
0 
0 
0 
0 
0 
0 
0 
0 
0 
0 
0 
0 
0 
0 
0 
0 
0 
0 
0 
0 
0 
0 
0 
0 
0 
0 
0 
0 
0 
0 
0 
0 
0 
0 
0 
0 
0 
0 
0 
0 
0 
0 
0 
0 
0 
0 
0 
0 
0 
0 
0 
0 
0 
0 
0 
0 
0 
0 
0 
0 
0 
0 
0 
0 
0 
0 
0 
0 
0 
0 
0 
0 
0 
0 
0 
0 
1 
0 
0 
0 
0 
2 
3 
0 
0 
0 
0 
4 
5 
0 
0 
0 
0 
0 
0 
0 
0 
0 
0 
0 
0 
0 
0 
0 
0 
0 
0 
0 
0 
0 
0 
6 
7 
0 
0 
0 
0 
8 
9 
0 
0 
0 
0 
10 
11 
0 
0 
0 
0 
0 
0 
0 
0 
0 
0 
0 
0 
0 
0 
0 
0 
0 
0 
0 
0 
0 
0 
0 
0 
0 
0 
0 
0 
0 
0 
0 
0 
0 
0 
0 
0 
0 
0 
0 
0 
0 
0 
0 
0 
0 
0 
0 
0 
0 
0 
0 
0 
0 
0 
0 
0 
0 
0 
0 
0 
0 
0 
0 
0 
0 
0 
0 
0 
0 
0 
0 
0 
0 
0 
0 
0 
SCALARS LOCAL_ID_L1-8 int 1
LOOKUP_TABLE default
0 
0 
0 
0 
0 
0 
0 
0 
0 
0 
0 
0 
0 
0 
0 
0 
0 
0 
0 
0 
0 
0 
0 
0 
0 
0 
0 
0 
0 
0 
0 
0 
0 
0 
0 
0 
0 
0 
0 
0 
0 
0 
0 
0 
0 
0 
0 
0 
0 
0 
0 
0 
0 
0 
0 
0 
0 
0 
0 
0 
0 
0 
0 
0 
0 
0 
0 
0 
0 
0 
0 
0 
0 
0 
0 
0 
0 
0 
0 
0 
0 
0 
0 
0 
0 
0 
0 
0 
0 
0 
0 
0 
0 
0 
0 
0 
0 
0 
0 
0 
0 
0 
0 
0 
0 
0 
0 
0 
0 
0 
0 
0 
0 
0 
0 
0 
0 
0 
0 
0 
0 
0 
0 
0 
0 
0 
0 
1 
0 
0 
0 
0 
2 
3 
0 
0 
0 
0 
4 
5 
0 
0 
0 
0 
0 
0 
0 
0 
0 
0 
0 
0 
0 
0 
0 
0 
0 
0 
0 
0 
0 
0 
6 
7 
0 
0 
0 
0 
8 
9 
0 
0 
0 
0 
10 
11 
0 
0 
0 
0 
0 
0 
0 
0 
0 
0 
0 
0 
0 
0 
0 
0 
0 
0 
0 
0 
0 
0 
12 
13 
0 
0 
0 
0 
14 
15 
0 
0 
0 
0 
16 
17 
0 
0 
0 
0 
SCALARS LOCAL_ID_L1-9 int 1
LOOKUP_TABLE default
0 
0 
1 
0 
0 
0 
0 
2 
3 
0 
0 
0 
0 
4 
5 
0 
0 
0 
0 
0 
0 
0 
0 
0 
0 
0 
0 
0 
0 
0 
0 
0 
0 
0 
0 
0 
0 
6 
7 
0 
0 
0 
0 
8 
9 
0 
0 
0 
0 
10 
11 
0 
0 
0 
0 
0 
0 
0 
0 
0 
0 
0 
0 
0 
0 
0 
0 
0 
0 
0 
0 
0 
0 
12 
13 
0 
0 
0 
0 
14 
15 
0 
0 
0 
0 
16 
17 
0 
0 
0 
0 
0 
0 
0 
0 
0 
0 
0 
0 
0 
0 
0 
0 
0 
0 
0 
0 
0 
0 
0 
0 
0 
0 
0 
0 
0 
0 
0 
0 
0 
0 
0 
0 
0 
0 
0 
0 
0 
0 
0 
0 
0 
0 
0 
0 
0 
0 
0 
0 
0 
0 
0 
0 
0 
0 
0 
0 
0 
0 
0 
0 
0 
0 
0 
0 
0 
0 
0 
0 
0 
0 
0 
0 
0 
0 
0 
0 
0 
0 
0 
0 
0 
0 
0 
0 
0 
0 
0 
0 
0 
0 
0 
0 
0 
0 
0 
0 
0 
0 
0 
0 
0 
0 
0 
0 
0 
0 
0 
0 
0 
0 
0 
0 
0 
0 
0 
0 
0 
0 
0 
0 
0 
0 
0 
0 
0 
SCALARS LOCAL_ID_L1-10 int 1
LOOKUP_TABLE default
0 
0 
0 
0 
0 
0 
0 
0 
0 
0 
0 
0 
0 
0 
0 
0 
0 
0 
0 
0 
0 
0 
0 
0 
0 
0 
0 
0 
0 
0 
0 
0 
0 
0 
0 
0 
0 
0 
0 
0 
0 
0 
0 
0 
0 
0 
0 
0 
0 
0 
0 
0 
0 
0 
0 
0 
0 
0 
0 
0 
0 
0 
0 
0 
0 
0 
0 
0 
0 
0 
0 
0 
0 
0 
1 
0 
0 
0 
0 
2 
3 
0 
0 
0 
0 
4 
5 
0 
0 
0 
0 
0 
0 
0 
0 
0 
0 
0 
0 
0 
0 
0 
0 
0 
0 
0 
0 
0 
0 
6 
7 
0 
0 
0 
0 
8 
9 
0 
0 
0 
0 
10 
11 
0 
0 
0 
0 
0 
0 
0 
0 
0 
0 
0 
0 
0 
0 
0 
0 
0 
0 
0 
0 
0 
0 
0 
0 
0 
0 
0 
0 
0 
0 
0 
0 
0 
0 
0 
0 
0 
0 
0 
0 
0 
0 
0 
0 
0 
0 
0 
0 
0 
0 
0 
0 
0 
0 
0 
0 
0 
0 
0 
0 
0 
0 
0 
0 
0 
0 
0 
0 
0 
0 
0 
0 
0 
0 
0 
0 
0 
0 
0 
0 
0 
0 
0 
0 
0 
0 
0 
0 
0 
0 
0 
0 
0 
SCALARS LOCAL_ID_L1-11 int 1
LOOKUP_TABLE default
0 
0 
0 
0 
0 
0 
0 
0 
0 
0 
0 
0 
0 
0 
0 
0 
0 
0 
0 
0 
0 
0 
0 
0 
0 
0 
0 
0 
0 
0 
0 
0 
0 
0 
0 
0 
0 
0 
0 
0 
0 
0 
0 
0 
0 
0 
0 
0 
0 
0 
0 
0 
0 
0 
0 
0 
0 
0 
0 
0 
0 
0 
0 
0 
0 
0 
0 
0 
0 
0 
0 
0 
0 
0 
0 
0 
0 
0 
0 
0 
0 
0 
0 
0 
0 
0 
0 
0 
0 
0 
0 
0 
0 
0 
0 
0 
0 
0 
0 
0 
0 
0 
0 
0 
0 
0 
0 
0 
0 
0 
1 
0 
0 
0 
0 
2 
3 
0 
0 
0 
0 
4 
5 
0 
0 
0 
0 
0 
0 
0 
0 
0 
0 
0 
0 
0 
0 
0 
0 
0 
0 
0 
0 
0 
0 
6 
7 
0 
0 
0 
0 
8 
9 
0 
0 
0 
0 
10 
11 
0 
0 
0 
0 
0 
0 
0 
0 
0 
0 
0 
0 
0 
0 
0 
0 
0 
0 
0 
0 
0 
0 
12 
13 
0 
0 
0 
0 
14 
15 
0 
0 
0 
0 
16 
17 
0 
0 
0 
0 
0 
0 
0 
0 
0 
0 
0 
0 
0 
0 
0 
0 
0 
0 
0 
0 
0 
SCALARS LOCAL_ID_L1-12 int 1
LOOKUP_TABLE default
0 
0 
0 
0 
0 
0 
0 
0 
0 
0 
0 
0 
0 
0 
1 
0 
0 
0 
0 
2 
3 
0 
0 
0 
0 
0 
0 
0 
0 
0 
0 
0 
0 
0 
0 
0 
0 
0 
0 
0 
0 
0 
0 
0 
0 
0 
0 
0 
0 
4 
5 
0 
0 
0 
0 
6 
7 
0 
0 
0 
0 
0 
0 
0 
0 
0 
0 
0 
0 
0 
0 
0 
0 
0 
0 
0 
0 
0 
0 
0 
0 
0 
0 
0 
0 
8 
9 
0 
0 
0 
0 
10 
11 
0 
0 
0 
0 
0 
0 
0 
0 
0 
0 
0 
0 
0 
0 
0 
0 
0 
0 
0 
0 
0 
0 
0 
0 
0 
0 
0 
0 
0 
0 
0 
0 
0 
0 
0 
0 
0 
0 
0 
0 
0 
0 
0 
0 
0 
0 
0 
0 
0 
0 
0 
0 
0 
0 
0 
0 
0 
0 
0 
0 
0 
0 
0 
0 
0 
0 
0 
0 
0 
0 
0 
0 
0 
0 
0 
0 
0 
0 
0 
0 
0 
0 
0 
0 
0 
0 
0 
0 
0 
0 
0 
0 
0 
0 
0 
0 
0 
0 
0 
0 
0 
0 
0 
0 
0 
0 
0 
0 
0 
0 
0 
0 
0 
0 
0 
0 
0 
0 
0 
0 
0 
0 
0 
SCALARS LOCAL_ID_L1-13 int 1
LOOKUP_TABLE default
0 
0 
0 
0 
0 
0 
0 
0 
0 
0 
0 
0 
0 
0 
0 
0 
0 
0 
0 
0 
0 
0 
0 
0 
0 
0 
0 
0 
0 
0 
0 
0 
0 
0 
0 
0 
0 
0 
0 
0 
0 
0 
0 
0 
0 
0 
0 
0 
0 
0 
0 
0 
0 
0 
0 
0 
0 
0 
0 
0 
0 
0 
0 
0 
0 
0 
0 