# vtk DataFile Version 3.0
MOAB 5.0.1
ASCII
DATASET UNSTRUCTURED_GRID
POINTS 377 double
1 0 0
0.4669833762 0 0.2252024921
0.5726608283 0 0.4243802425
1 0.3103373592 0.5019775802
1 0 0.375
0.5 0 0
1 0.5330729601 0.4667813856
1 0.125 0
0.4979426925 0.1031211474 0.1409461399
0.9407786396 0.498275855 0.4357478268
0.6656074406 0.213181646 0.3921247187
0.4339667523 0 0.4504049841
0.4997558594 0.1247558594 0
1 0.4957917825 0.5040592833
0.5988001472 0.1755913792 0.3676165267
1 0 0.25
1 0 0.125
0.875 0 0
0.75 0 0
0.625 0 0
0.4824630343 0.05156057369 0.183074316
0.8684117571 0 0.3706096193
0.8747789096 0 0.4563255538
0.6420078662 0 0.4113678717
0.6556856729 0 0.4805414618
0.7240892092 0 0.4447873698
0.9373894548 0 0.4156627769
0.8026176356 0 0.430914429
0.7368235142 0 0.4912192387
0.8404359801 0.273093703 0.3999773773
0.8609966297 0.3496456376 0.4209847715
0.8815572792 0.4261975723 0.4419921656
0.786425357 0.2619328079 0.4083051441
0.7324147339 0.2507719128 0.4166329108
0.5033137903 0 0.4373926133
0.4504750642 0 0.3378037381
0.4989713462 0.05156057369 0.07047306994
0.8749389648 0.1249389648 0
0.6248168945 0.1248168945 0
0.7498779297 0.1248779297 0
0.5857304877 0.08779568959 0.3959983846
0.6395978676 0.0362351159 0.4251141899
0.652667527 0.1240308055 0.396732332
0.7170648217 0.1978561882 0.4349868422
0.958878701 0.3016835948 0.5029999068
0.9794393505 0.2337854246 0.4809701861
0.8866341178 0.1962227472 0.4841015912
0.9383180514 0.2251316601 0.4819925127
0.8326234947 0.1850618521 0.492429358
0.7786128716 0.173900957 0.5007571247
1 0.22701824 0.1166953464
1 0.3290364801 0.2333906928
1 0.4310547201 0.3500860392
1 0.4547874641 0.5450146951
1 0.4137831457 0.585970107
0.4834916881 0 0.112601246
1 0.2068915728 0.4179850535
1 0.1034457864 0.3339925267
1 0.09319470681 0.4379813797
0.6592020113 0.1699338061 0.348220721
0.5573159027 0.149024148 0.1920234041
0.6025387259 0.1710438619 0.254928694
0.9278387261 0 0.09958887521
0.9310223023 0 0.2049468424
0.8556774521 0 0.1991777504
0.8620446046 0 0.2848936849
0.9342058785 0 0.3103048097
0.7835161782 0 0.2987666256
0.7930669069 0 0.3648405273
0.7113549042 0 0.3983555008
0.5337353427 0 0.32804446
0.6169956212 0 0.3182851819
0.6613304141 0 0.2121901212
0.5641568951 0 0.2186963066
0.7002558997 0 0.3085259037
0.7585039331 0 0.2056839358
0.8167519666 0 0.1028419679
0.7056652071 0 0.1060950606
0.5945784476 0 0.1093481533
1 0.1239479456 0.1260148208
1 0.113696866 0.2300036738
1 0.2478958912 0.2520296416
1 0.227393732 0.3350073476
1 0.3718438369 0.3780444625
1 0.3410905981 0.4400110213
0.9794393505 0.1508417974 0.4389999534
0.9794393505 0.04739601098 0.3550074267
0.958878701 0.2187399676 0.4610296742
0.958878701 0.09479202196 0.3350148534
0.9383180514 0.1421880329 0.44002228
0.9617947687 0.01967211787 0.3557500268
0.9235895373 0.03934423574 0.4615000535
0.8960006472 0.01967211787 0.4160548364
0.8238393733 0.01967211787 0.3906437116
0.7920012944 0.03934423574 0.4571096729
0.8641625684 0.03934423574 0.4825207977
0.885384306 0.0590163536 0.4422500803
0.8328244281 0.1345163553 0.4770938884
0.8691904694 0.1179533573 0.4695087218
0.8504690099 0.1622402484 0.4763512884
0.904479633 0.1734011435 0.4680235216
0.8868350512 0.1456772504 0.4687661217
0.9001128201 0.1618601508 0.4207723068
0.6826182074 0.06828731437 0.4701779905
0.7065349069 0.07247023181 0.4258481372
0.7041249082 0.1087053477 0.4395944554
0.7017149095 0.1449404636 0.4533407736
0.6502575284 0.1602659214 0.4104786501
0.7380809508 0.1283774656 0.445755607
0.7920915739 0.1395383607 0.4374278403
0.7557255326 0.1561013587 0.4450130069
0.7404909495 0.09214234967 0.4320092888
0.7580452518 0.01967211787 0.4509485213
0.7216792105 0.0362351159 0.4585336879
0.685028206 0.03205219846 0.4564316723
0.825957337 0.0590163536 0.4632708244
0.7964583868 0.1510793534 0.4846790551
0.8515458876 0.09022946418 0.4702513219
0.9030288878 0.08674024671 0.4415074802
0.7556352531 0.05590723377 0.4646948395
0.7895912958 0.07557935164 0.4708559911
0.8151798463 0.1067924622 0.4778364885
0.9206734696 0.1144641398 0.4407648801
0.7744469921 0.1118144675 0.4381704403
0.9412341191 0.06706812885 0.4607574535
0.9794393505 0.337231211 0.5649627128
0.9407786396 0.419990359 0.5139811363
0.7710754448 0.2090170833 0.4266590755
0.9407786396 0.4609946774 0.4730257244
0.847973407 0.2379775767 0.4740754265
0.879096691 0.2313388734 0.410003542
0.8996573405 0.3078908081 0.4310109362
0.9202179901 0.3844427427 0.4520183303
0.9202179901 0.3434384243 0.4929737421
0.8112123409 0.0712844904 0.01830119094
0.6862123409 0.0712844904 0.01830119094
0.9284886684 0.1188790088 0.125468612
0.8954671386 0.2111025783 0.1774282768
0.9339569404 0.1844471388 0.1039193295
0.9079280189 0.1662750198 0.2304760387
0.8873673693 0.2136710308 0.3354834654
0.9133962909 0.2318431498 0.2089267561
0.8928356414 0.2792391608 0.3139341828
0.9669784702 0.09222356942 0.05195966473
0.869438217 0.1929304592 0.303984986
0.8899988665 0.1455344483 0.1989775593
0.8515090647 0.1721898877 0.2724865066
0.8432383864 0.1898577303 0.3470065833
0.9669784702 0.4640674063 0.4300041272
0.8253092341 0.1691171588 0.3155081039
0.782822334 0.1354489954 0.3114303522
0.7892277633 0.1786968352 0.35533435
0.8189038047 0.1258693189 0.2716041061
0.8592327372 0.1245953692 0.1653190855
0.8573936066 0.09921387945 0.1980951588
0.5583445565 0.0974635743 0.1215503342
0.6539961071 0.1557184042 0.2977908174
0.8611675387 0.2105983019 0.3785050627
0.8110902706 0.1961624201 0.01830119094
0.7455855512 0.117187491 0.06937845519
0.9669784702 0.216171515 0.1779744855
0.9339569404 0.3083950845 0.2299341503
0.897722539 0.09793992982 0.09181013825
0.9077571098 0.4292703012 0.3989705683
0.8871964603 0.3527183665 0.3779631742
0.8724246818 0.1425689808 0.03660238189
0.9362123409 0.0712844904 0.01830119094
0.7776164298 0.1212335934 0.2610004487
0.7467408632 0.1450286718 0.3512565983
0.6843732103 0.04590300062 0.05107726424
0.5593732103 0.04590300062 0.05107726424
0.9669784702 0.3401194607 0.3039893064
0.8666358108 0.2761664319 0.3569557801
0.8207429354 0.1512508086 0.2388280328
0.7143979711 0.1500608311 0.2783950117
0.7091920669 0.1358454292 0.2279651082
0.6487902029 0.1415030022 0.2473609139
0.7437464206 0.09180600124 0.1021545285
0.6187464206 0.09180600124 0.1021545285
0.6639692437 0.1138257152 0.1650598183
0.9464178207 0.3875154716 0.408996733
0.5612123409 0.0712844904 0.01830119094
0.8958834084 0.07255844003 0.1245862115
0.8687464206 0.09180600124 0.1021545285
0.7889692437 0.1138257152 0.1650598183
0.8071569156 0.1994374068 0.3868328294
0.7531462925 0.1882765117 0.3951605961
0.7260093046 0.2075240729 0.372728913
0.8705855512 0.117187491 0.06937845519
0.7504794419 0.1404811546 0.2385687656
0.9133962909 0.3557910954 0.334941577
0.741534959 0.1308132699 0.3008266948
0.7196038753 0.164276233 0.3288249153
0.6035673797 0.1194832883 0.184455624
0.5342731066 0.1031211474 0.3531362611
0.6012101459 0.1393562633 0.3538702085
0.4659547224 0.05156057369 0.295675562
0.4494464105 0.05156057369 0.408276808
0.5187934484 0.05156057369 0.3952644372
0.593594243 0.1613759772 0.3171866231
0.5431655156 0.1251408613 0.2038514297
0.5960042417 0.1251408613 0.3034403049
0.5883883388 0.1471605753 0.2667567196
0.4814343805 0.1031211474 0.2535473859
0.6036201446 0.1031211474 0.3401238903
0.5266572037 0.1251408613 0.3164526758
0.4649260686 0.1031211474 0.3661486319
0.4956978874 0.02201971396 0.4007090279
0.5574290225 0.04403942791 0.3510130718
0.5122061993 0.02201971396 0.2881077819
0.5111775455 0.07358028764 0.3585808518
0.6191601576 0.06605914187 0.3013171156
0.5729086806 0.0956000016 0.3088848957
0.5739373344 0.04403942791 0.2384118257
0.6808912927 0.08807885583 0.2516211594
0.6356684695 0.06605914187 0.1887158696
0.6346398157 0.1176197156 0.2591889395
0.5904456463 0.04403942791 0.1258105797
0.5894169926 0.0956000016 0.1962836497
0.5452228232 0.02201971396 0.06290528986
0.5441941694 0.07358028764 0.1333783598
0.5287145112 0.02201971396 0.1755065359
0.5276858575 0.07358028764 0.2459796058
0.9177574019 0.1895840439 0.4200297067
0.9794393505 0.4192398479 0.4830518891
0.958878701 0.3426879132 0.462044495
0.9794393505 0.3782355294 0.524007301
0.9383180514 0.2661359786 0.4410371009
0.8108130334 0.09525146951 0.4305852737
0.8471790747 0.07868847147 0.4230001071
0.7089449055 0.0362351159 0.412101819
0.7429009482 0.05590723377 0.4182629706
0.7426163776 0.06289055532 0.3860218911
0.7450263763 0.02665543941 0.3722755729
0.7453109468 0.01967211787 0.4045166524
0.7786978484 0.05331087883 0.346195645
0.7789824189 0.04632755728 0.3784367245
0.7792669894 0.03934423574 0.410677804
0.740206379 0.09912567122 0.3997682093
0.7377963803 0.1353607871 0.4135145275
0.7741624216 0.1187977891 0.4059293609
0.7738778511 0.1257811106 0.3736882814
0.8105284629 0.1022347911 0.3983441942
0.7768569908 0.07557935164 0.4244241221
0.8132230321 0.0590163536 0.4168389555
0.8468945042 0.08567179302 0.3907590276
0.8129384615 0.06599967515 0.384597876
0.8466099336 0.09265511457 0.3585179481
0.8123693205 0.07996631824 0.3201157171
0.812653891 0.0729829967 0.3523567966
0.7762878497 0.08954599473 0.3599419632
0.8460407926 0.1066217577 0.2940357892
0.8099593218 0.1162014341 0.3338620353
0.8463253631 0.09963843611 0.3262768687
0.8102438924 0.1092181126 0.3661031148
0.7765724203 0.08256267319 0.3921830427
0.6702228232 0.02201971396 0.06290528986
0.6045960335 0.06792271458 0.1139825541
0.6498188566 0.08994242853 0.176887844
0.7154456463 0.04403942791 0.1258105797
0.7606684695 0.06605914187 0.1887158696
0.6950416798 0.1119621425 0.2397931338
0.8404456463 0.04403942791 0.1258105797
0.7748188566 0.08994242853 0.176887844
0.9202228232 0.02201971396 0.06290528986
0.8545960335 0.06792271458 0.1139825541
0.7952228232 0.02201971396 0.06290528986
0.9343732103 0.04590300062 0.05107726424
0.8093732103 0.04590300062 0.05107726424
0.7295960335 0.06792271458 0.1139825541
0.8097361557 0.1672622538 0.4366852402
0.8637467788 0.1784231488 0.4283574735
0.8250860679 0.2201779784 0.4183313088
0.8284576152 0.1229753626 0.4298426736
[...]
POINT_DATA 377
SCALARS GLOBAL_ID int 1
LOOKUP_TABLE default
1 
11 
21 
38 
48 
51 
67 
68 
71 
75 
76 
78 
84 
88 
91 
113 
114 
115 
116 
117 
281 
284 
285 
286 
287 
288 
289 
290 
291 
304 
305 
306 
307 
308 
320 
321 
340 
341 
342 
343 
375 
376 
377 
402 
403 
404 
405 
406 
407 
408 
413 
414 
415 
452 
453 
454 
498 
499 
500 
503 
504 
505 
701 
702 
703 
704 
705 
706 
707 
708 
709 
710 
711 
712 
713 
714 
715 
716 
717 
750 
751 
752 
753 
754 
755 
886 
887 
888 
889 
890 
891 
892 
893 
894 
895 
896 
897 
898 
899 
900 
901 
902 
903 
904 
905 
906 
907 
908 
909 
910 
911 
912 
913 
914 
915 
916 
917 
918 
919 
920 
921 
922 
923 
924 
925 
926 
927 
928 
929 
930 
931 
932 
933 
934 
935 
936 
937 
938 
939 
940 
941 
942 
943 
944 
945 
946 
947 
948 
949 
950 
951 
952 
953 
954 
955 
956 
957 
958 
959 
960 
961 
962 
963 
964 
965 
966 
967 
968 
969 
970 
971 
972 
973 
974 
975 
976 
977 
978 
979 
980 
981 
982 
983 
984 
985 
986 
987 
988 
989 
990 
991 
992 
993 
994 
1840 
1841 
1842 
1843 
1844 
1845 
1846 
1847 
1848 
1849 
1850 
1851 
1852 
2068 
2069 
2070 
2071 
2072 
2073 
2074 
2075 
2076 
2077 
2078 
2079 
2080 
2081 
2082 
2083 
2084 
2085 
2086 
2087 
2088 
2089 
2090 
2091 
2092 
2093 
2094 
2095 
2096 
2097 
2098 
2099 
2100 
2101 
2102 
2103 
2104 
2105 
2106 
2107 
2108 
2109 
2110 
2111 
2112 
2113 
2114 
2115 
2116 
2117 
2118 
2119 
2120 
2121 
2122 
2123 
2124 
2125 
2126 
2127 
2128 
2129 
2130 
2131 
2132 
2133 
2134 
2135 
2136 
2137 
2138 
2139 
2140 
2141 
2142 
2143 
2144 
2145 
2146 
2147 
2148 
2149 
2150 
2151 
2152 
2153 
2154 
2155 
2156 
2157 
2158 
2159 
2160 
2161 
2162 
2163 
2164 
2165 
2166 
2167 
2168 
2169 
2170 
2171 
2172 
2173 
2174 
2175 
2176 
2177 
2178 
2179 
2180 
2181 
2182 
2183 
2184 
2185 
2186 
2187 
2188 
2189 
2190 
2191 
2192 
2193 
2194 
2195 
2196 
2197 
2198 
2199 
2200 
2201 
2202 
2203 
2204 
2205 
2206 
2207 
2208 
2209 
2210 
2211 
2212 
2213 
2214 
2215 
2216 
2217 
2218 
2219 
2220 
2221 
2222 
2223 
2224 
2225 
2226 
2227 
2228 
2229 
2230 
2231 
2232 
2233 
2234 
2235 
2236 
2237 
SCALARS LOCAL_ID_L1 int 1
LOOKUP_TABLE default
0 
0 
3 
4 
6 
5 
11 
4 
5 
14 
15 
18 
8 
18 
11 
15 
16 
17 
18 
19 
74 
18 
19 
20 
21 
22 
23 
24 
25 
37 
38 
39 
40 
41 
77 
78 
26 
27 
28 
29 
80 
81 
82 
53 
54 
55 
56 
57 
58 
59 
34 
35 
36 
73 
74 
55 
70 
71 
72 
48 
49 
50 
62 
63 
64 
65 
66 
67 
68 
69 
70 
71 
72 
73 
74 
75 
76 
77 
78 
79 
80 
81 
82 
83 
84 
154 
155 
156 
157 
158 
159 
160 
161 
162 
163 
164 
165 
166 
167 
168 
169 
170 
171 
172 
173 
174 
175 
176 
177 
178 
179 
180 
181 
182 
183 
184 
185 
186 
187 
188 
189 
190 
191 
192 
193 
147 
148 
149 
150 
151 
152 
153 
154 
155 
75 
76 
77 
78 
79 
80 
81 
82 
83 
84 
85 
86 
87 
88 
89 
90 
91 
92 
93 
94 
95 
96 
97 
98 
99 
100 
101 
102 
103 
104 
105 
106 
107 
108 
109 
110 
111 
112 
113 
114 
115 
116 
117 
118 
119 
120 
121 
122 
123 
124 
125 
126 
127 
128 
129 
130 
131 
132 
133 
134 
238 
239 
240 
241 
242 
243 
244 
245 
246 
247 
248 
249 
250 
207 
208 
209 
210 
211 
212 
213 
214 
215 
216 
217 
218 
219 
220 
221 
222 
223 
224 
225 
226 
227 
228 
229 
230 
231 
232 
233 
234 
235 
236 
237 
238 
239 
240 
241 
242 
243 
244 
245 
246 
247 
248 
249 
250 
251 
252 
253 
254 
255 
256 
257 
258 
259 
260 
261 
262 
263 
264 
265 
266 
267 
268 
269 
270 
271 
272 
273 
274 
275 
276 
277 
278 
279 
280 
281 
282 
283 
284 
285 
286 
287 
288 
289 
290 
291 
292 
293 
294 
295 
296 
297 
298 
299 
300 
301 
302 
303 
304 
305 
306 
307 
308 
309 
310 
311 
312 
313 
314 
315 
316 
317 
318 
319 
320 
321 
322 
323 
324 
325 
326 
327 
328 
329 
330 
331 
332 
333 
334 
335 
336 
337 
338 
339 
340 
341 
342 
343 
344 
345 
346 
347 
348 
349 
350 
351 
352 
353 
354 
355 
356 
357 
358 
359 
360 
361 
362 
363 
364 
365 
366 
367 
368 
369 
370 
371 
372 
373 
374 
375 
376 
CELL_DATA 3205
SCALARS GLOBAL_ID int 1
LOOKUP_TABLE default
32 
33 
34 
35 
36 
37 
38 
39 
40 
41 
42 
43 
44 
45 
46 
47 
48 
49 
50 
51 
52 
53 
54 
55 
56 
57 
58 
59 
60 
61 
62 
63 
64 
65 
66 
67 
68 
69 
70 
71 
72 
73 
74 
75 
76 
351 
352 
353 
354 
355 
356 
357 
358 
359 
360 
361 
362 
363 
364 
365 
366 
380 
381 
382 
383 
885 
886 
887 
888 
889 
890 
891 
892 
893 
894 
895 
896 
897 
898 
899 
900 
901 
902 
903 
904 
905 
929 
930 
931 
932 
1853 
1854 
1855 
1856 
1857 
1858 
1859 
1860 
1861 
1862 
1863 
1864 
1865 
1866 
1867 
1868 
1872 
1873 
1874 
1875 
2322 
2323 
2324 
2325 
2336 
2340 
2344 
2346 
2347 
2348 
2349 
2426 
2427 
2428 
2429 
2430 
2431 
2432 
2433 
2434 
2435 
2436 
2437 
2438 
2439 
2440 
2441 
2442 
2443 
2455 
2456 
2457 
2458 
3190 
3191 
3192 
3193 
3194 
3195 
3196 
3197 
3198 
3199 
3218 
3234 
3235 
3357 
3358 
3359 
3360 
3361 
3362 
3363 
3364 
3365 
3366 
3367 
3368 
3369 
3370 
3371 
3372 
3373 
3374 
3375 
3376 
3377 
3378 
3379 
3535 
3536 
3537 
3562 
3563 
3564 
3565 
3566 
3567 
3568 
3569 
3570 
3571 
3572 
3573 
3574 
3575 
3576 
3577 
3578 
3579 
3684 
3685 
3686 
3687 
3688 
3689 
3690 
3724 
3725 
4105 
4106 
4107 
4108 
4109 
4110 
4111 
4112 
4137 
4138 
4298 
4299 
4300 
4301 
4302 
4303 
4304 
4305 
4306 
4307 
4308 
4309 
4310 
4311 
4988 
4989 
4990 
4991 
4992 
4993 
4994 
4995 
4996 
4997 
4998 
4999 
5000 
5001 
5002 
5003 
5004 
5005 
5006 
5007 
5008 
5009 
5010 
5011 
5012 
5013 
5014 
5015 
5016 
5017 
5018 
5019 
5020 
5021 
5022 
5023 
5024 
5025 
5026 
5027 
5028 
5029 
5030 
5031 
5032 
5033 
5034 
5035 
5036 
5037 
5038 
5039 
5040 
5041 
5042 
5043 
5044 
5045 
5046 
5047 
5048 
5049 
5050 
5051 
5052 
5053 
5054 
5055 
5056 
5057 
5058 
5059 
5060 
5061 
5062 
5063 
5064 
5065 
5066 
5067 
5068 
5069 
5070 
5071 
5072 
5073 
5074 
5075 
10358 
10359 
10360 
10361 
10362 
10363 
10364 
10365 
10366 
10384 
10385 
10386 
10387 
10388 
10389 
10390 
10391 
10392 
10393 
10397 
10402 
10403 
10404 
10405 
10406 
10407 
10408 
10428 
10429 
10430 
10431 
10432 
10433 
10434 
10435 
10436 
10437 
10438 
10439 
10440 
10441 
10442 
10443 
10444 
10445 
10446 
10447 
10448 
10449 
10450 
10451 
10452 
10453 
10454 
10455 
10456 
10457 
10458 
10464 
10465 
10466 
10467 
10468 
10486 
10487 
10488 
10489 
10490 
10491 
10492 
10493 
10494 
10495 
10496 
10497 
10498 
10499 
10500 
10501 
10502 
10503 
10504 
10505 
10506 
10509 
10513 
10514 
10515 
10516 
10517 
10518 
10524 
10525 
10545 
10766 
10767 
10768 
10769 
10770 
10771 
10772 
10773 
10774 
10775 
10776 
10777 
10778 
10779 
10780 
10781 
10782 
10783 
10784 
10785 
10786 
10787 
10788 
10789 
10836 
10837 
10838 
10839 
10840 
10841 
10842 
10843 
10844 
10878 
10879 
10882 
10886 
10918 
10919 
10920 
10921 
10922 
10923 
10924 
10925 
10926 
10927 
10928 
10970 
10971 
10972 
10973 
10974 
10975 
10976 
10977 
11477 
11478 
11479 
11480 
11481 
11482 
11492 
11493 
11494 
11495 
11496 
11497 
12203 
12204 
12205 
12206 
12207 
12208 
12209 
12210 
12211 
12212 
12213 
12234 
12235 
12236 
13029 
13030 
13031 
13032 
13033 
13034 
13035 
13036 
13037 
13038 
13039 
13040 
13041 
13042 
13043 
13056 
13073 
13074 
13075 
13076 
13077 
13100 
13101 
13102 
13103 
13104 
13105 
13106 
13107 
13108 
13109 
13110 
13111 
13112 
13113 
13114 
13115 
13116 
13117 
13118 
13119 
13120 
13121 
13809 
13810 
13811 
13812 
13813 
13814 
13815 
13816 
13817 
13818 
13819 
13820 
13821 
13822 
13823 
13824 
13825 
13826 
13827 
13828 
13829 
13830 
13831 
13832 
13833 
13857 
13858 
13859 
13860 
13861 
13862 
13863 
13864 
13865 
13866 
13867 
13868 
13869 
13870 
13871 
13872 
13873 
13874 
13875 
13876 
13877 
13878 
13879 
13880 
13881 
13882 
13883 
13884 
13885 
13886 
13887 
13888 
13889 
13890 
13913 
13914 
13915 
13916 
13917 
13939 
13940 
13941 
13942 
13943 
13944 
13945 
13946 
13947 
13948 
13949 
13950 
13951 
13952 
13953 
13954 
13955 
13956 
13957 
13958 
13979 
13980 
13981 
13982 
13983 
13984 
13985 
13986 
13987 
13988 
13989 
13990 
14010 
14011 
14012 
14013 
14014 
14015 
14016 
14017 
14018 
14019 
14020 
14021 
14022 
14023 
14024 
14025 
14026 
14027 
14028 
14029 
14053 
14054 
14055 
14056 
14057 
14058 
14059 
14148 
14149 
14150 
14157 
14161 
14162 
14165 
14166 
14167 
14175 
14178 
14179 
14182 
14183 
15072 
15073 
15074 
15075 
15076 
15077 
15078 
15079 
15080 
15108 
15109 
15133 
15134 
15135 
16153 
16154 
16155 
16156 
16157 
16158 
16159 
16160 
16161 
16162 
16165 
16166 
16167 
16168 
16169 
16170 
16211 
16212 
16213 
16214 
16215 
16216 
16217 
16218 
16219 
16220 
16221 
16222 
16223 
16224 
16225 
16226 
16227 
16228 
16229 
16230 
16231 
16232 
16233 
16234 
16235 
16252 
16253 
16254 
16255 
16256 
16257 
16304 
16305 
16306 
16307 
16308 
16309 
16310 
16311 
18386 
18387 
18388 
18389 
18390 
18391 
18392 
18393 
18394 
18395 
18396 
18397 
18398 
18399 
18400 
18401 
18402 
18403 
18404 
18405 
18406 
18407 
18408 
18409 
18410 
18411 
18412 
18413 
18414 
18415 
18416 
18417 
18418 
18419 
18420 
18421 
18422 
18423 
18424 
18425 
18426 
18427 
18428 
18429 
18430 
18431 
18432 
18433 
18434 
18435 
18436 
18437 
18438 
18439 
18440 
18441 
18442 
18443 
18444 
18445 
18446 
18447 
18448 
18449 
18450 
18451 
18452 
18453 
18454 
18455 
18456 
18457 
18458 
18459 
18460 
18461 
18462 
18463 
18464 
18465 
18466 
18467 
18468 
18469 
18470 
18471 
18472 
18473 
18474 
18475 
18476 
18477 
18478 
18479 
18480 
18481 
18482 
18483 
18484 
18485 
18486 
18487 
18488 
18489 
18490 
18491 
18492 
18493 
18494 
18495 
18496 
18497 
18498 
18499 
18500 
18501 
18502 
18503 
18504 
18505 
18506 
18507 
18508 
18509 
18510 
18511 
18512 
18513 
18514 
18515 
18516 
18517 
18518 
18519 
18520 
18521 
18522 
18523 
18524 
18525 
18526 
18527 
18528 
18529 
18530 
18531 
18532 
18533 
18534 
18535 
18536 
18537 
18538 
18539 
18540 
18541 
18542 
18543 
18544 
18783 
18784 
18785 
18786 
18787 
18788 
18789 
18790 
18791 
18792 
18793 
18794 
18795 
18796 
18797 
18798 
18799 
18800 
18801 
18802 
18803 
18804 
18805 
18806 
18807 
18808 
18809 
18810 
18811 
18812 
18813 
18814 
18815 
18816 
18817 
18818 
18819 
18820 
18821 
18822 
18823 
18824 
18825 
18826 
18827 
20973 
20974 
20975 
20976 
20977 
20978 
20979 
20980 
20981 
20994 
20995 
20996 
20997 
21001 
21002 
21003 
21004 
21005 
21006 
21007 
21008 
21009 
21010 
21011 
21015 
21016 
21017 
21018 
21019 
21020 
21021 
21022 
21023 
21024 
21025 
21026 
21027 
21028 
21029 
21030 
21031 
21032 
21033 
21034 
21035 
21036 
21037 
21038 
21039 
21040 
21041 
21042 
21043 
21044 
21045 
21046 
21047 
21048 
21049 
21050 
21051 
21052 
21053 
21061 
21062 
21063 
21064 
21065 
21066 
21074 
21075 
21076 
21077 
21078 
21079 
21080 
21081 
21082 
21083 
21084 
21085 
21086 
21087 
21088 
21089 
21090 
21091 
21095 
21096 
21097 
21098 
21099 
21100 
21101 
21102 
21103 
21104 
21105 
21106 
21107 
21108 
21109 
21110 
21111 
21133 
21134 
21135 
21136 
21137 
21138 
21144 
21145 
21146 
21147 
21148 
21149 
21150 
21151 
21152 
21153 
21154 
21155 
21156 
21157 
21158 
21159 
21160 
21161 
21162 
21163 
21164 
21170 
21171 
21172 
21173 
21174 
21175 
21176 
21177 
21178 
21179 
21180 
21181 
21182 
21183 
21184 
21185 
21186 
21187 
21188 
21189 
21190 
21191 
21192 
21193 
21194 
21195 
21196 
21197 
21211 
21212 
21213 
21214 
21215 
21216 
21217 
21238 
21239 
21240 
21241 
21242 
21243 
21244 
21245 
21246 
21247 
21248 
21249 
21250 
21251 
21252 
21253 
21254 
21255 
21256 
21257 
21258 
21259 
21260 
21261 
21262 
21263 
21264 
21265 
21267 
21268 
21269 
21270 
21271 
21272 
21273 
21274 
21275 
21276 
21277 
21278 
21279 
21280 
21281 
21282 
21283 
21284 
21285 
21286 
21287 
21288 
21289 
21290 
21311 
21312 
21313 
21314 
21315 
21316 
21317 
21318 
21319 
21320 
21321 
21322 
21323 
21324 
21325 
21326 
21327 
21328 
21329 
21330 
21331 
21332 
21333 
21334 
21335 
21361 
21362 
21363 
21364 
21365 
21366 
21381 
21382 
21383 
21384 
21388 
21389 
21390 
21391 
21392 
21393 
21395 
21396 
21397 
21398 
21399 
21400 
21401 
21402 
21403 
21404 
21405 
21406 
21407 
21408 
21409 
21410 
21411 
21412 
21413 
21414 
21415 
21416 
21417 
21418 
21419 
21420 
21421 
21422 
21439 
21440 
21441 
21442 
21443 
21444 
21445 
21446 
21447 
21448 
21449 
21450 
21451 
21452 
21453 
21454 
21455 
21456 
21457 
21458 
21459 
21460 
21461 
21462 
21463 
21464 
21465 
21466 
21477 
21478 
21479 
21480 
21481 
21482 
21483 
21484 
21485 
21486 
21487 
21488 
21489 
21490 
21491 
21492 
21493 
21528 
21529 
21530 
21531 
21532 
21539 
21548 
21549 
21550 
21551 
21552 
21553 
21554 
21555 
21556 
21557 
21558 
21559 
21560 
21561 
21562 
21580 
21582 
21583 
21584 
21585 
21586 
21587 
21588 
21589 
21590 
21591 
21592 
21593 
21594 
21595 
21596 
21597 
21598 
21599 
21600 
21601 
21602 
21603 
21604 
21605 
21606 
21607 
21611 
21612 
21614 
21615 
21616 
21617 
21618 
21619 
21620 
21621 
21622 
21623 
21624 
21625 
21626 
21627 
21628 
21629 
21630 
21631 
21632 
21633 
21634 
21640 
21641 
21642 
21643 
21644 
21657 
21658 
21659 
21660 
21661 
21662 
21678 
21679 
21680 
21681 
21682 
21683 
21684 
21685 
21691 
21692 
21693 
21694 
21695 
21696 
21697 
21698 
21702 
21703 
21709 
21710 
21711 
21712 
21732 
21749 
21750 
21751 
21752 
21753 
21754 
21755 
21766 
21767 
21771 
21772 
21780 
21781 
21782 
21783 
21784 
21785 
21786 
21787 
21788 
21789 
21790 
21791 
21792 
21793 
21794 
21797 
21817 
21818 
21819 
21820 
21821 
21822 
21823 
21824 
21825 
21826 
21827 
21828 
21829 
21830 
21831 
21832 
21833 
21834 
21835 
21836 
21837 
21838 
21839 
21840 
21841 
21842 
21843 
21844 
21845 
21846 
21847 
21848 
21849 
21850 
21851 
21852 
21853 
21854 
21855 
21856 
21857 
21858 
21859 
21860 
21862 
21863 
21864 
21865 
21866 
21867 
21868 
21869 
21870 
21871 
21872 
21873 
21874 
21875 
21876 
21877 
21878 
21907 
21908 
21909 
21910 
21911 
21912 
21913 
21914 
21915 
21916 
21917 
21918 
21919 
21920 
21921 
21922 
21923 
21924 
21925 
21926 
21927 
21928 
21929 
21930 
21931 
21932 
21933 
21934 
21935 
21936 
21937 
21938 
21939 
21940 
21941 
21942 
21943 
21944 
21945 
21946 
21947 
21948 
21949 
21950 
21951 
21952 
21953 
21954 
21955 
21956 
21965 
21966 
21967 
21968 
21969 
22016 
22022 
22023 
22024 
22025 
22026 
22027 
22028 
22029 
22030 
22031 
22032 
22033 
22034 
22035 
22058 
22059 
22060 
22061 
22062 
22063 
22064 
22065 
22066 
22067 
22068 
22069 
22070 
22071 
22075 
22076 
22077 
22078 
22079 
22080 
22081 
22082 
22083 
22084 
22085 
22086 
22087 
22088 
22089 
22090 
22091 
22092 
22093 
22094 
22095 
22096 
22097 
22098 
22099 
22100 
22101 
22102 
22103 
22104 
22105 
22118 
22119 
22120 
22121 
22122 
22123 
22124 
22125 
22126 
22127 
22128 
22129 
22130 
22131 
22132 
22133 
22134 
22135 
22136 
22137 
22138 
22149 
22150 
22151 
22152 
22153 
22164 
22165 
22171 
22172 
22173 
22174 
22175 
22176 
22177 
22178 
22179 
22180 
22181 
22182 
22183 
22184 
22185 
22200 
22201 
22202 
22203 
22204 
22205 
22206 
22207 
22208 
22209 
22210 
22211 
22212 
22213 
22214 
22232 
22233 
22234 
22235 
22236 
22237 
22238 
22239 
22240 
22241 
22242 
22248 
22249 
22250 
22251 
22252 
22253 
22254 
22255 
22256 
22257 
22258 
22259 
22260 
22261 
22262 
22263 
22264 
22265 
22266 
22267 
22268 
22269 
22270 
22293 
22294 
22305 
22306 
22307 
22308 
22309 
22310 
22311 
22312 
22313 
22314 
22315 
22316 
22341 
22342 
22343 
22344 
22345 
22346 
22347 
22348 
22349 
22350 
22351 
22352 
22353 
22354 
22355 
22356 
22357 
22358 
22359 
22360 
22361 
22362 
22363 
22364 
22365 
22366 
22392 
22393 
22394 
22396 
22397 
22398 
22399 
22400 
22401 
22402 
22403 
22404 
22405 
22406 
22407 
22408 
22409 
22410 
22411 
22412 
22413 
22414 
22415 
22425 
22426 
22427 
22428 
22429 
22430 
22431 
22456 
22457 
22458 
22459 
22460 
22461 
22462 
22463 
22464 
22465 
22466 
22467 
22468 
22469 
22477 
22478 
22479 
22480 
22481 
22482 
22483 
22484 
22485 
22486 
22507 
22508 
22509 
22510 
22511 
22512 
22513 
22514 
22515 
22516 
22517 
22518 
22519 
22520 
22521 
22522 
22526 
22527 
22528 
22529 
22530 
22531 
22532 
22552 
22553 
22554 
22555 
22556 
22557 
22576 
22577 
22578 
22579 
22580 
22581 
22582 
22583 
22585 
22586 
22587 
22588 
22589 
22590 
22591 
22616 
22617 
22618 
22619 
22620 
22621 
22622 
22623 
22624 
22655 
22656 
22657 
22658 
22688 
22689 
22690 
22691 
22692 
22693 
22694 
22695 
22696 
22697 
22698 
22699 
22700 
22701 
22702 
22703 
22704 
22705 
22706 
22707 
22708 
22709 
22710 
22711 
22712 
22713 
22714 
22722 
22723 
22724 
22725 
22726 
22727 
22728 
22729 
22730 
22731 
22732 
22733 
22734 
22735 
22736 
22737 
22738 
22739 
22740 
22741 
22742 
22743 
22744 
22745 
22746 
22747 
22753 
22754 
22755 
22756 
22757 
22758 
22759 
22760 
22761 
22762 
22763 
22764 
22765 
22766 
22767 
22768 
22769 
22770 
22771 
22772 
22773 
22774 
22775 
22776 
22777 
22792 
22793 
22794 
22795 
22796 
22797 
22798 
22799 
22800 
22801 
22802 
22803 
22804 
22832 
22833 
22834 
22835 
22836 
22837 
22838 
22839 
22840 
22841 
22842 
22843 
22844 
22845 
22846 
22847 
22848 
22849 
22850 
22851 
22852 
22853 
22854 
22855 
22856 
22857 
22858 
22859 
22860 
22861 
22862 
22863 
22864 
22872 
22873 
22874 
22875 
22876 
22877 
22878 
22879 
22880 
22881 
22882 
22883 
22884 
22885 
22886 
22887 
22888 
22889 
22890 
22891 
22892 
22893 
22894 
22895 
22896 
22897 
22898 
22899 
22900 
22901 
22902 
22903 
22904 
22905 
22906 
22907 
22908 
22909 
22910 
22911 
22912 
22913 
22940 
22944 
22945 
22946 
22947 
22948 
22952 
22953 
22954 
22955 
22956 
22957 
22961 
22962 
22963 
22964 
22965 
22966 
22967 
22968 
22969 
22970 
22971 
22972 
22973 
22974 
22975 
22976 
22977 
22978 
22979 
22980 
22981 
22982 
22992 
23000 
23004 
23005 
23006 
23007 
23008 
23009 
23010 
23011 
23023 
23036 
23037 
23038 
23039 
23040 
23041 
23042 
23043 
23044 
23045 
23049 
33127 
37894 
37895 
37896 
37897 
37898 
37899 
37900 
37901 
37902 
37903 
37904 
37905 
37906 
37907 
37908 
37909 
37910 
37911 
37912 
37913 
37914 
37915 
37916 
37917 
37918 
37919 
37920 
37942 
37943 
37944 
37945 
37946 
37947 
37948 
37949 
37950 
37951 
37952 
37953 
37958 
37959 
37960 
37961 
37962 
37963 
37964 
37965 
37966 
37967 
37968 
37969 
37970 
37971 
37972 
37973 
37974 
37975 
37976 
37987 
37988 
37989 
37990 
37991 
37992 
37993 
38013 
38014 
38015 
38016 
38017 
38018 
38019 
38020 
38021 
38022 
38023 
38024 
38025 
38029 
38030 
38031 
38032 
38033 
38034 
38035 
38041 
38042 
38043 
38044 
38045 
38046 
38047 
38048 
38049 
38050 
38051 
38052 
38053 
38054 
38055 
38060 
38061 
38062 
38063 
38064 
38065 
38066 
38067 
38068 
38069 
38070 
38071 
38072 
38073 
38074 
38075 
38087 
38088 
38089 
38090 
38091 
38092 
38093 
38094 
38095 
38096 
38097 
38098 
38099 
38100 
38101 
38102 
38103 
38104 
38105 
39487 
39488 
39489 
39490 
39491 
39492 
39493 
39494 
39495 
39496 
39497 
39498 
39499 
39500 
39501 
39502 
39503 
39504 
39505 
39506 
39507 
39508 
39509 
39510 
39511 
39512 
39513 
39514 
39515 
39516 
39517 
39518 
39519 
39520 
39521 
39522 
39523 
39524 
39525 
39526 
39527 
39528 
39529 
39530 
39531 
39532 
39533 
39534 
39535 
39536 
39537 
39538 
39539 
39540 
39541 
39542 
39543 
39544 
39545 
39546 
39547 
39548 
39549 
39550 
39551 
39552 
39553 
39554 
39555 
39556 
39557 
39558 
39559 
39560 
39561 
39562 
39563 
39564 
39565 
39566 
39567 
39568 
39569 
39570 
39571 
39572 
39573 
39574 
39575 
39576 
39577 
39578 
39579 
39580 
39581 
39582 
39583 
39584 
39585 
39586 
39587 
39588 
39589 
39590 
39591 
39592 
39593 
39594 
39595 
39596 
39597 
39598 
39599 
39600 
39601 
39602 
39603 
39604 
39605 
39606 
39607 
39608 
39609 
39610 
39611 
39612 
39613 
39614 
39615 
39616 
39617 
39618 
39619 
39620 
39621 
39622 
39623 
39624 
39625 
39626 
39627 
39628 
39629 
39630 
39631 
39632 
39633 
39634 
39635 
39636 
39637 
39638 
39639 
39640 
39641 
39642 
39643 
39644 
39645 
39646 
39647 
39648 