# vtk DataFile Version 3.0
MOAB 5.0.1
ASCII
DATASET UNSTRUCTURED_GRID
POINTS 234 double
0 0 0
4 0 0
0 4 0
4 4 0
0 0 4
4 0 4
0 4 4
4 4 4
1 0 4
2 0 4
3 0 4
4 0 3
4 0 2
4 0 1
3 0 0
2 0 0
1 0 0
0 0 1
0 0 2
0 0 3
0 1 4
0 2 4
0 3 4
1 4 4
2 4 4
3 4 4
4 4 3
4 4 2
4 4 1
3 4 0
2 4 0
1 4 0
0 4 1
0 4 2
0 4 3
0 3 0
0 2 0
0 1 0
4 1 4
4 2 4
4 3 4
4 1 0
4 2 0
4 3 0
2.000714068 2.000716988 4
0.9976943334 0.9980206692 4
3.002586166 0.9977809362 4
0.9981067348 3.002914665 4
3.003015514 3.002691879 4
2.000232292 0.9984029119 4
0.9984085756 2.00092552 4
2.000993356 3.002424797 4
3.002418404 2.000290822 4
0 1.982670864 2.005427087
0 2.990651721 1.004754587
0 0.9922028029 3.003210873
0 0.9916031266 1.000746564
0 2.992584477 3.00164249
0 1.989906842 1.002951613
0 2.990953379 2.003506833
0 0.9906531966 2.002616052
0 1.991597097 3.002905454
1.998674578 4 2
3.001748626 4 3.002408881
3.001748626 4 0.9975911186
0.9969472758 4 3.002408881
0.9969472758 4 0.9975911186
3.001174169 4 2
1.99884072 4 0.9979867958
1.99884072 4 3.002013204
0.997297024 4 2
1.998298005 2.019797945 0
2.996847348 1.010307455 0
3.000529107 3.009029785 0
0.9983520344 3.008802769 0
1.001032787 1.009533466 0
1.999238006 3.01087687 0
1.998872511 1.011101974 0
2.999012996 2.010354553 0
0.9992380993 2.009989058 0
1.998674578 0 2
3.001748626 0 3.002408881
3.001748626 0 0.9975911186
0.9969472758 0 3.002408881
0.9969472758 0 0.9975911186
3.001174169 0 2
1.99884072 0 0.9979867958
1.99884072 0 3.002013204
0.997297024 0 2
4 2.011370774 1.988632146
4 1.007207473 2.993118863
4 3.007076634 2.997731297
4 1.002018177 0.9931765938
4 3.005339533 0.9943368316
4 1.005521946 1.992648674
4 2.007612776 2.994904169
4 3.006711889 1.994719553
4 2.004562773 0.9933096455
2.166317676 2.181104509 2.111035155
1.412951332 1.413029023 1.415123821
1.278769428 1.277159388 2.72312671
1.273626784 2.723528336 1.277974227
2.723798764 1.276077191 1.273653778
1.150388875 2.948138191 2.516677314
3.02981313 2.47461 1.080629411
2.517845759 1.148189121 2.95494744
3.035579095 3.001254075 2.471528603
3.223070649 1.76247302 2.084983879
2.113792905 3.199953081 1.743883757
1.676067806 2.104614172 3.168042695
2.101089156 0.9661077702 1.953483504
1.951897698 2.101890997 0.9666901843
0.9667453125 1.953836825 2.09941923
2.261365742 3.174348353 3.121927131
3.08564342 2.186805564 3.204227898
3.266960374 3.116559586 1.692866105
0.8509686486 0.8368035048 1.808917444
1.677913042 0.8167349616 0.8192496194
0.8166186988 1.674177848 0.8193798907
3.217874373 0.7713706828 2.406550896
2.427773215 3.185643832 0.8172130395
1.609709791 3.263164199 0.735795895
0.7925160762 2.424010869 3.195604984
0.744648379 1.647644776 3.301946843
3.264221031 0.7357935802 1.595643027
1.675042685 0.8334681391 3.283755555
3.271114381 1.690120773 0.8134486315
0.8366152395 3.27090038 1.677092216
3.274674111 3.273025517 3.278731802
0.7812288048 3.250635141 3.260285043
0.7118932357 0.7115191157 3.282346221
3.288193281 3.294914123 0.717186419
3.259092583 0.7785859418 3.250543382
3.311064423 0.6990001691 0.694307893
0.7044693834 0.7058839617 0.713345485
0.6906441179 3.315134479 0.6890015764
0.7574584306 2.471705496 0.7552392462
2.482652783 0.7612280744 0.7639529808
0.4624147584 0.484180584 3.735165117
3.497767079 0.5033946747 3.722045534
0.5018881338 3.50659062 3.726912584
3.531211888 3.509321933 3.729926185
1.399086537 0.5144680968 3.694303319
2.495400631 0.6221399975 3.570426468
0.505388135 1.384194764 3.696725572
0.5907102578 2.472361001 3.626029031
1.499802733 3.42368906 3.642821535
2.598628179 3.457393074 3.660885943
3.35562249 1.495206888 3.577382644
3.468584902 2.608580904 3.667258988
1.414472279 1.486805301 3.527527075
2.459559686 1.495599958 3.493753882
1.412567511 2.61969408 3.572713895
2.460256503 2.528776764 3.606658801
0.2683571846 0.4918814512 0.4900387128
0.2671822789 3.508256035 0.488201951
0.260187565 0.4834676035 3.517701843
0.2833183263 3.495200644 3.508302616
0.3334905891 0.5556082458 1.414916445
0.5009720865 0.6818576709 2.536631629
0.3069267605 1.377045848 3.479683625
0.3854889759 2.47113659 3.423270521
0.3245411393 3.488940002 1.401638825
0.4633132017 3.35799106 2.493899003
0.367294485 2.504028283 0.574522464
0.3266910253 1.396252405 0.5271823189
0.5451633343 2.447108942 1.423416054
0.5226448619 1.472553223 2.499641415
0.5424985024 1.482582628 1.539004615
0.4563784286 2.449155009 2.547748744
0.469333335 3.728199006 0.4706981512
3.528068301 3.727163906 0.4700842894
0.5043501454 3.719893934 3.508969801
3.530292567 3.727642532 3.528686494
1.48455999 3.577855138 3.329200582
2.615950481 3.664844283 3.444786627
3.400690469 3.570340546 2.494189633
3.47924246 3.656542409 1.396144375
2.469599078 3.619243967 0.5968428054
1.384287884 3.690023371 0.5089086093
0.5469278737 3.690036617 1.392783068
0.6579899685 3.560271257 2.492990226
2.515101744 3.579157624 2.47590598
2.536656397 3.608827234 1.433048636
1.491976338 3.490282825 2.458140886
1.480770868 3.52042108 1.41135781
0.4698829228 0.4926771591 0.2713488074
3.511681949 0.4925735931 0.2673320953
0.4686209797 3.510456508 0.2694116406
3.510712786 3.50842709 0.2682008067
2.507775134 0.5791635489 0.3700373542
1.398473669 0.5283839628 0.3276231443
2.471143388 3.419217849 0.3830730347
1.376147708 3.470848977 0.3105503585
0.5662197185 2.509716409 0.360131273
0.5493969396 1.392885115 0.3295438131
3.490840855 1.403949846 0.3241005057
3.356837354 2.494003356 0.4481431798
2.451930575 1.429956598 0.5428056993
2.459010872 2.550184806 0.4553768668
1.45137175 2.577641403 0.5037823456
1.482767613 1.514367356 0.5377691077
0.4702276894 0.2732119289 0.4724268802
3.528997324 0.2725564761 0.4694853868
0.4639275906 0.2665983546 3.533302131
3.507777099 0.2833748152 3.509518547
1.383186817 0.3277211099 3.477487681
2.49333141 0.4527363864 3.380105034
3.413409953 0.3883052011 2.46937973
3.490727474 0.3107880288 1.381565509
2.509937264 0.362931703 0.5684502581
1.390707913 0.3288301854 0.5498919788
0.5503777416 0.3302888707 1.42213434
0.6905009762 0.491720434 2.537614185
2.545381082 0.458060891 2.451719641
2.573933476 0.504129924 1.450251679
1.502413136 0.53091397 2.4629899
1.516165674 0.5393183487 1.511438384
3.730340975 0.491255496 0.4682823166
3.729250227 3.508959851 0.4691082744
3.721869074 0.5059984876 3.501043799
3.732489118 3.508997014 3.511293665
3.628767105 0.5878190483 2.468725545
3.689233653 0.532673846 1.371940857
3.58297531 3.37334108 2.485245024
3.669774633 3.452075278 1.378205319
3.643086887 1.483756577 3.44188129
3.654609563 2.585033207 3.457127317
3.690466832 1.394719127 0.5456495699
3.568093751 2.492841553 0.6518471385
3.562212228 1.419008066 2.61509785
3.57003125 2.512115707 2.439168848
3.519301338 1.41630378 1.47504455
3.520415231 2.380989539 1.458271004
CELLS 0 0
CELL_TYPES 0
POINT_DATA 234
SCALARS GLOBAL_ID int 1
LOOKUP_TABLE default
0 
1 
2 
3 
4 
5 
6 
7 
8 
9 
10 
11 
12 
13 
14 
15 
16 
17 
18 
19 
20 
21 
22 
23 
24 
25 
26 
27 
28 
29 
30 
31 
32 
33 
34 
35 
36 
37 
38 
39 
40 
41 
42 
43 
44 
45 
46 
47 
48 
49 
50 
51 
52 
53 
54 
55 
56 
57 
58 
59 
60 
61 
62 
63 
64 
65 
66 
67 
68 
69 
70 
71 
72 
73 
74 
75 
76 
77 
78 
79 
80 
81 
82 
83 
84 
85 
86 
87 
88 
89 
90 
91 
92 
93 
94 
95 
96 
97 
98 
99 
100 
101 
102 
103 
104 
105 
106 
107 
108 
109 
110 
111 
112 
113 
114 
115 
116 
117 
118 
119 
120 
121 
122 
123 
124 
125 
126 
127 
128 
129 
130 
131 
132 
133 
134 
135 
136 
137 
138 
139 
140 
141 
142 
143 
144 
145 
146 
147 
148 
149 
150 
151 
152 
153 
154 
155 
156 
157 
158 
159 
160 
161 
162 
163 
164 
165 
166 
167 
168 
169 
170 
171 
172 
173 
174 
175 
176 
177 
178 
179 
180 
181 
182 
183 
184 
185 
186 
187 
188 
189 
190 
191 
192 
193 
194 
195 
196 
197 
198 
199 
200 
201 
202 
203 
204 
205 
206 
207 
208 
209 
210 
211 
212 
213 
214 
215 
216 
217 
218 
219 
220 
221 
222 
223 
224 
225 
226 
227 
228 
229 
230 
231 
232 
233 
