# vtk DataFile Version 3.0
MOAB 5.0.1
ASCII
DATASET UNSTRUCTURED_GRID
POINTS 208 double
0.3279861953 0.6282144594 0.352081097
0.217262812 0.5170611576 0.6228180287
0.2174594293 0.6434232644 0.650216997
0.305206235 0.5085413838 0.5294944084
0.2458623363 0.664168433 0.3297129137
0.04089170894 0.5181786299 0.5641062785
0 0.5850506824 0.5485531183
0.2352190645 0.6119836287 0.3516848834
0 0.4467342431 0.5647374911
0.1753327859 0.6370661568 0.6972887953
0.1896777063 0.7175456459 0.6532758912
0.09888795896 0.5012851339 0.6525062042
0.1451182589 0.5798372712 0.6058299754
0.1042265499 0.5083928845 0.6064611879
0.3979733658 0.5247722146 0.529890622
0.2031145089 0.5629437753 0.694229901
0.3843399459 0.5530119784 0.4615376441
0.302216087 0.5889659519 0.4391694607
0.2487122735 0.509202764 0.6678362628
0.1723765479 0.6795214218 0.5368457849
0.1918295319 0.6787158578 0.4895069592
0.2112825159 0.6779102938 0.4421681335
0.2200922281 0.6249199255 0.4168012774
0.1855176434 0.6268627243 0.2953711046
0.239702629 0.5468625275 0.3085404589
0.3066996515 0.5238448508 0.3960250363
0.2586426753 0.4489086606 0.325794717
0.3324697598 0.5630933583 0.3089366726
0.2503459009 0.5990473319 0.2865684893
0 0.5487999866 0.4799926324
0 0.476298595 0.3428716605
0 0.5125492908 0.4114321465
0.09940284216 0.5503085081 0.3481176592
0.1748743715 0.57467792 0.3173430743
0.04970142108 0.5185146703 0.3047442381
0 0.7233671216 0.5323687455
0 0.4600506824 0.6735531183
0 0.4333944238 0.4953660014
0 0.6050439771 0.3968697813
0 0.5458824048 0.3291202991
0 0.6642055493 0.4646192634
0 0.6975386634 0.3823074161
0 0.6154662146 0.3153689377
0 0.5950380118 0.6614148387
0 0.7300253412 0.6492765592
0.321826488 0.5109085539 0.3309086423
0.2038260094 0.6716630282 0.581864019
0.2126357215 0.6186726599 0.5564971629
0.2320887055 0.617867096 0.5091583372
0.2262691414 0.5904328961 0.6248501409
0.2350788536 0.5374425278 0.5994832849
0.3142125645 0.5819131224 0.5315265205
0.244085183 0.6108142664 0.601515397
0.2036293921 0.5453009214 0.5544650507
0.1145296786 0.4906992779 0.2959416228
0.1642310997 0.5224931156 0.3393150439
0.2290593572 0.4946777232 0.3305124286
0.2489088908 0.6355648709 0.6952352311
0.3414794043 0.5254335948 0.6682324765
0.3211561333 0.491012085 0.4564237188
0.07644482691 0.582515266 0.6095200822
0.1119979449 0.6468519022 0.6549338859
0.07644482691 0.7208317052 0.5933357094
0.1344410769 0.5656217701 0.6979200078
0.1528896538 0.7182962889 0.6543026734
0.04089170894 0.7948115083 0.531737533
0.03555311798 0.6493873185 0.593966922
0.3949832178 0.6051967827 0.4395656744
0.02431165977 0.4977822989 0.5282263777
0.1948196799 0.5982912897 0.5798319068
0.131484839 0.608077035 0.5374769974
0.02431165977 0.5769371659 0.4442925228
0.02431165977 0.5044357743 0.3071715509
0.200639244 0.6257254895 0.4641401031
0.0652033687 0.5692266856 0.5275951651
0.1060950776 0.6406710723 0.5269639526
0.08178341787 0.5896230166 0.563475066
0.1840591949 0.6053291585 0.4282602023
0.1392164496 0.6387287598 0.4650859831
0.09832474062 0.5539445538 0.396345706
0.1237145019 0.5680234498 0.3939183932
0.1480261617 0.5857383915 0.4397191271
0.1557964987 0.6591250908 0.500965884
0.04862331954 0.5354905353 0.4223437746
0.09832474062 0.5672843731 0.4657171957
0.1597475351 0.5876142168 0.3824594683
0.04862331954 0.5488303546 0.4917152643
0.07401308085 0.4895566787 0.3634853297
0.04862331954 0.522150716 0.3529722849
0.02431165977 0.5635973465 0.3749210331
0.09940284216 0.5036355747 0.3610580168
0.2307354999 0.6771047299 0.3948293078
0.2260725241 0.4640707893 0.5974511727
0.1130362621 0.4554025162 0.5810943319
0.153927971 0.5268469029 0.5804631193
0.3235026307 0.6933355606 0.3952255215
0.1622227999 0.4914993886 0.6948611135
0.2084530998 0.5700515259 0.6481848848
0.3994667823 0.5400756815 0.39642125
0.3173429234 0.5760296551 0.3740530667
0.3120360155 0.6692961256 0.2919604167
0.2773682043 0.7081310455 0.6499285176
0.2579152203 0.7089366095 0.6972673433
0.2264657588 0.716795003 0.6522491091
0.3594920632 0.6721770719 0.6722967009
0.3354991082 0.686282731 0.4875825813
0.4069796953 0.5981439531 0.5319227342
0.3368523138 0.6270450972 0.6019116107
0.2667249324 0.6559462412 0.6719004872
0.2547284549 0.6629990707 0.5795434274
0.2427319774 0.6700519003 0.4871863676
0.3128593589 0.6411507563 0.4171974911
0.3248558363 0.6340979267 0.5095545509
0.3504857337 0.5988053334 0.6702645887
0.2577186029 0.5825745026 0.669868375
0.3278459844 0.5536733586 0.5998794985
0.2352754709 0.6638046347 0.6268822531
0.2232789934 0.6708574643 0.5345251933
0.1491042632 0.5354294125 0.404431438
0.1988056843 0.5205503169 0.4607452167
0.173415923 0.5531443542 0.4502321719
0.1491042632 0.4887564791 0.4173717956
0.1237145019 0.5213505164 0.4068587508
0.2915728151 0.5367811476 0.4611414304
0.2214454337 0.5656822916 0.5311303069
0.2094489562 0.5727351212 0.4387732471
0.2139325207 0.50761402 0.3956288226
0.2245757926 0.5597988244 0.373656853
0.2283890025 0.4747812543 0.4560275051
0.2124391042 0.4923105531 0.5290981947
0.1642310997 0.4758201823 0.3522554015
0.1899959722 0.5735406852 0.4861120728
0.18118626 0.6265310535 0.5114789288
0.07401308085 0.5162363173 0.5022283091
0.02431165977 0.4844424796 0.458854888
0.04970142108 0.4651882616 0.5387394225
0.04970142108 0.4518484423 0.4693679328
0.09940284216 0.48364228 0.5127413539
0.04970142108 0.4385086229 0.3999964431
0.02431165977 0.4711026603 0.3894833983
0.1237145019 0.5346903358 0.4762302405
0.1491042632 0.5020962984 0.4867432853
0.09940284216 0.4703024607 0.4433698642
0.07401308085 0.502896498 0.4328568194
0.09059313002 0.5366326483 0.53810821
0.1627376831 0.4738565346 0.5550962633
0.1402945511 0.5550866667 0.5121101414
0.1646062109 0.6061347225 0.475599028
0.1149047898 0.5876807041 0.5015970965
0.04862331954 0.6154965827 0.3270915696
0.07401308085 0.5829025454 0.3376046144
0.0729349793 0.6332115244 0.3728923035
0.09832474062 0.6006174871 0.3834053483
0.04862331954 0.5688236494 0.3400319272
0.09724663907 0.6509264661 0.4186930375
0.0729349793 0.5865385911 0.3858326612
0.1226364004 0.6183324288 0.4292060823
0.07401308085 0.536229612 0.350544972
0.1206893859 0.6546781167 0.30417372
0.08465635272 0.6350873497 0.3156326448
0.110046114 0.6024933124 0.3261456896
0.1810340788 0.6919838255 0.3385155291
0.170390807 0.6397990211 0.3604874987
0.1450010457 0.6723930584 0.3499744539
0.1693127054 0.6901080002 0.3957751878
0.1947024667 0.6575139628 0.4062882326
0.1332796723 0.6705172332 0.4072341126
0.1586694336 0.6379231958 0.4177471575
0.1089680125 0.6528022914 0.3614333787
0.1343577738 0.6202082541 0.3719464235
0.1027706116 0.6863548159 0.3942427892
0.07845895186 0.6686398742 0.3484420553
0.114491985 0.6882306412 0.3369831305
0.0729349793 0.7381948496 0.4390197781
0.1138266882 0.6713227971 0.4545729383
0.1304067374 0.6917191281 0.4904528392
0.1060950776 0.7789875116 0.5107795798
0.0729349793 0.5998784104 0.4552041509
0.1498597214 0.6909135641 0.4431140135
0.1664397706 0.7113098951 0.4789939144
0.1226751268 0.6610674033 0.5628438535
0.1860099678 0.651281658 0.6051987629
0.1173365358 0.6539596527 0.6088888697
0.1582282448 0.7254040395 0.6082576571
0.1806713768 0.6441739074 0.6512437791
0.1397796679 0.5727295207 0.6518749916
0.08951502847 0.6202747414 0.4910840517
0.1752494827 0.6583195268 0.4536270583
0.04862331954 0.7204799079 0.3932190442
0.02431165977 0.7027649662 0.3474183102
0.04089170894 0.6564950691 0.5479219058
0.02431165977 0.6360987381 0.5120420049
0.04862331954 0.6871467939 0.4755308915
0.08178341787 0.7279394558 0.5472906932
0.0652033687 0.7075431248 0.5114107924
0.04862331954 0.5821634687 0.4094034169
0.02431165977 0.6102702799 0.3619806754
0.02431165977 0.7152536051 0.42810815
0.3188396549 0.48030162 0.5978473864
0.1675613909 0.4986071391 0.6488160973
0.2308962319 0.4888213938 0.6911710067
0.2399025613 0.5621931323 0.6932031189
0.03555311798 0.5243873185 0.718966922
0.03555311798 0.5110708793 0.6101512948
0.07110623595 0.5754075154 0.6555650984
0.1066593539 0.6397441516 0.7009789021
0.07110623595 0.7137239547 0.6393807257
0.03555311798 0.6560455381 0.7108747356
CELLS 592 2967
4 25 16 99 17
4 7 17 25 99
4 24 7 25 99
4 99 28 7 0
4 67 7 99 17
4 99 7 67 0
4 24 27 98 45
4 24 98 25 45
4 98 27 24 99
4 25 98 24 99
4 98 45 26 25
4 4 100 95 0
4 107 52 108 109
4 101 109 107 108
4 101 107 104 108
4 110 22 91 111
4 110 22 17 48
4 17 16 112 51
4 109 52 48 51
4 17 51 109 48
4 17 109 110 48
4 109 51 17 112
4 110 109 17 112
4 109 52 51 107
4 106 107 109 51
4 106 109 112 51
4 17 22 110 111
4 110 105 67 111
4 110 67 17 111
4 67 105 110 112
4 17 67 110 112
4 111 22 91 7
4 4 7 111 91
4 111 7 4 0
4 95 111 4 0
4 7 22 17 111
4 67 111 7 17
4 7 111 67 0
4 114 52 108 107
4 104 107 114 108
4 114 107 104 113
4 114 52 51 50
4 51 16 115 3
4 51 18 114 50
4 18 3 51 115
4 114 18 51 115
4 14 18 115 3
4 115 18 14 58
4 51 52 114 107
4 114 106 51 107
4 51 106 114 115
4 91 22 110 21
4 108 52 116 109
4 116 52 47 117
4 117 52 47 48
4 21 47 117 20
4 117 47 21 48
4 116 52 117 109
4 21 22 110 48
4 117 52 48 109
4 110 109 117 48
4 21 110 117 48
4 108 52 114 116
4 108 114 102 116
4 2 103 49 46
4 49 103 116 46
4 116 52 50 47
4 116 47 53 46
4 116 53 49 46
4 53 47 116 50
4 49 53 116 50
4 2 103 57 49
4 57 18 1 49
4 2 57 1 49
4 116 52 114 50
4 116 103 49 57
4 49 18 114 57
4 49 114 116 57
4 114 18 49 50
4 116 114 49 50
4 118 32 90 80
4 118 119 120 121
4 120 81 80 122
4 120 122 90 121
4 120 90 118 121
4 90 122 120 80
4 118 90 120 80
4 79 81 122 80
4 90 80 79 122
4 90 79 87 122
4 123 16 17 51
4 123 119 124 125
4 124 52 51 48
4 17 22 125 48
4 124 48 17 125
4 124 17 123 125
4 17 48 124 51
4 123 17 124 51
4 118 32 80 85
4 118 119 125 120
4 125 22 85 77
4 80 81 120 77
4 125 77 80 120
4 125 80 118 120
4 80 77 125 85
4 118 80 125 85
4 123 16 25 17
4 123 119 125 126
4 125 22 17 127
4 25 56 126 127
4 125 127 25 126
4 125 25 123 126
4 25 127 125 17
4 123 25 125 17
4 24 56 25 127
4 7 22 127 17
4 25 17 7 127
4 25 7 24 127
4 123 16 3 59
4 123 119 128 129
4 128 3 123 129
4 123 3 128 59
4 123 16 59 25
4 123 119 126 128
4 126 59 123 128
4 123 59 126 25
4 118 32 55 90
4 118 119 121 126
4 55 56 126 130
4 121 55 118 126
4 118 55 121 90
4 55 32 54 90
4 123 16 51 3
4 123 119 129 124
4 129 92 3 50
4 51 52 124 50
4 129 50 51 124
4 129 51 123 124
4 51 50 129 3
4 123 51 129 3
4 18 92 50 3
4 51 3 18 50
4 118 32 85 55
4 118 119 126 125
4 126 56 55 127
4 85 22 125 127
4 126 127 85 125
4 126 85 118 125
4 85 127 126 55
4 118 85 126 55
4 7 22 85 127
4 85 32 33 55
4 24 56 127 55
4 85 55 24 127
4 85 24 7 127
4 24 55 85 33
4 7 24 85 33
4 125 22 73 48
4 125 119 124 131
4 124 52 48 47
4 73 132 131 47
4 124 47 73 131
4 124 73 125 131
4 73 47 124 48
4 125 73 124 48
4 19 132 20 46
4 47 132 46 20
4 21 22 48 73
4 47 132 20 73
4 21 73 47 20
4 47 73 21 48
4 68 86 133 134
4 120 81 122 140
4 120 119 141 121
4 141 122 120 121
4 122 142 141 140
4 120 122 141 140
4 122 81 143 140
4 136 140 122 143
4 143 81 84 140
4 84 86 134 133
4 84 133 136 140
4 84 136 143 140
4 136 133 84 134
4 143 136 84 134
4 122 81 79 143
4 79 88 87 139
4 138 79 122 87
4 122 79 138 143
4 84 86 83 134
4 84 81 143 79
4 83 88 79 139
4 143 139 83 79
4 143 83 84 79
4 84 83 143 134
4 5 76 13 144
4 93 144 5 13
4 129 119 141 131
4 141 137 145 146
4 53 132 131 146
4 141 146 53 131
4 141 53 129 131
4 53 146 141 145
4 129 53 141 145
4 70 132 19 69
4 53 92 1 94
4 53 132 70 69
4 70 76 94 12
4 70 12 1 69
4 70 1 53 69
4 1 12 70 94
4 53 1 70 94
4 94 76 13 12
4 70 76 144 94
4 70 132 53 146
4 53 92 94 145
4 144 137 146 145
4 53 145 144 146
4 53 144 70 146
4 144 145 53 94
4 70 144 53 94
4 13 76 94 144
4 94 93 13 144
4 135 137 133 144
4 5 76 144 74
4 133 86 68 74
4 5 74 133 68
4 133 74 5 144
4 135 133 5 144
4 141 137 146 140
4 141 119 120 131
4 120 81 140 147
4 146 132 131 147
4 120 147 146 131
4 120 146 141 131
4 146 147 120 140
4 141 146 120 140
4 19 132 70 82
4 78 81 147 148
4 75 76 148 70
4 147 132 82 70
4 75 70 147 82
4 75 147 78 82
4 147 70 75 148
4 78 147 75 148
4 148 81 147 140
4 148 76 144 70
4 144 137 140 146
4 147 132 70 146
4 144 146 147 70
4 144 147 148 70
4 147 146 144 140
4 148 147 144 140
4 75 76 74 148
4 78 81 148 84
4 74 84 78 148
4 75 74 78 148
4 144 137 133 140
4 144 76 148 74
4 148 81 140 84
4 133 86 74 84
4 148 84 133 74
4 148 133 144 74
4 133 84 148 140
4 144 133 148 140
4 124 52 47 50
4 124 119 129 131
4 129 92 50 53
4 47 132 131 53
4 129 53 47 131
4 129 47 124 131
4 47 53 129 50
4 124 47 129 50
4 19 132 46 69
4 2 69 19 46
4 1 92 53 49
4 53 132 69 46
4 2 46 53 69
4 2 53 1 69
4 53 46 2 49
4 1 53 2 49
4 49 92 53 50
4 53 132 46 47
4 1 92 49 18
4 49 92 50 18
4 120 81 147 77
4 120 119 125 131
4 125 22 77 73
4 147 132 131 73
4 125 73 147 131
4 125 147 120 131
4 147 73 125 77
4 120 147 125 77
4 19 132 82 20
4 73 132 20 82
4 78 81 77 147
4 73 132 82 147
4 78 147 73 82
4 73 147 78 77
4 6 8 68 5
4 83 86 71 134
4 83 88 139 89
4 139 31 71 89
4 139 71 83 89
4 71 31 139 134
4 83 71 139 134
4 68 134 71 86
4 68 71 134 29
4 71 31 134 29
4 89 139 72 88
4 89 72 139 30
4 89 139 31 30
4 25 56 24 45
4 151 149 152 153
4 151 154 155 156
4 155 88 153 79
4 152 81 156 79
4 155 79 152 156
4 155 152 151 156
4 152 79 155 153
4 151 152 155 153
4 87 88 79 157
4 90 32 157 80
4 79 80 90 157
4 87 79 90 157
4 157 88 79 153
4 157 32 150 80
4 150 149 153 152
4 79 81 80 152
4 150 152 79 80
4 150 79 157 80
4 79 152 150 153
4 157 79 150 153
4 90 32 34 157
4 87 88 157 72
4 90 34 87 157
4 150 32 157 34
4 157 88 153 72
4 161 158 162 163
4 162 22 91 165
4 166 164 167 168
4 166 154 151 156
4 151 149 168 152
4 167 81 156 152
4 151 152 167 156
4 151 167 166 156
4 167 152 151 168
4 166 167 151 168
4 167 164 165 169
4 167 81 80 77
4 80 32 169 85
4 165 22 77 85
4 80 85 165 77
4 80 165 167 77
4 165 85 80 169
4 167 165 80 169
4 169 164 165 163
4 169 32 160 85
4 160 158 163 162
4 165 22 85 162
4 160 162 165 85
4 160 165 169 85
4 165 162 160 163
4 169 165 160 163
4 80 32 150 169
4 80 81 167 152
4 167 164 169 168
4 150 149 152 168
4 167 168 150 152
4 167 150 80 152
4 150 168 167 169
4 80 150 167 169
4 160 32 169 150
4 169 164 163 168
4 159 149 150 168
4 169 168 159 150
4 169 159 160 150
4 159 168 169 163
4 160 159 169 163
4 166 154 170 151
4 168 149 151 171
4 170 171 168 151
4 170 168 166 151
4 168 149 171 159
4 172 159 168 171
4 168 159 172 163
4 7 22 91 162
4 161 162 7 91
4 161 7 4 91
4 7 162 161 23
4 85 32 160 33
4 85 22 7 162
4 7 23 160 162
4 7 160 85 162
4 85 160 7 33
4 177 86 83 84
4 177 154 156 155
4 156 81 84 79
4 83 88 155 79
4 156 79 83 155
4 156 83 177 155
4 83 79 156 84
4 177 83 156 84
4 180 76 70 12
4 181 97 12 69
4 181 69 70 19
4 181 70 180 19
4 70 69 181 12
4 180 70 181 12
4 1 97 69 12
4 5 76 60 13
4 11 13 5 60
4 180 76 12 182
4 12 97 181 184
4 183 184 12 181
4 183 12 180 181
4 12 184 183 182
4 180 12 183 182
4 15 97 12 184
4 12 76 185 182
4 9 64 184 182
4 12 182 9 184
4 12 9 15 184
4 9 182 12 185
4 15 9 12 185
4 185 76 60 182
4 9 64 182 61
4 60 61 9 182
4 60 9 185 182
4 9 61 60 63
4 185 9 60 63
4 12 76 13 185
4 13 96 15 185
4 12 13 15 185
4 60 76 185 13
4 185 96 11 13
4 185 11 60 13
4 60 11 185 63
4 156 81 78 84
4 156 154 177 174
4 177 86 84 186
4 78 175 174 186
4 177 186 78 174
4 177 78 156 174
4 78 186 177 84
4 156 78 177 84
4 180 76 75 70
4 75 82 19 70
4 180 75 19 70
4 78 175 75 82
4 75 175 78 186
4 74 86 186 84
4 78 84 74 186
4 78 74 75 186
4 181 97 2 184
4 10 184 181 2
4 15 97 184 2
4 10 2 15 184
4 2 97 181 69
4 19 69 2 181
4 1 97 2 69
4 156 81 167 78
4 156 154 174 166
4 174 167 156 166
4 167 178 174 78
4 156 167 174 78
4 91 22 21 165
4 21 22 73 187
4 73 82 179 187
4 187 22 73 77
4 187 175 78 82
4 78 73 187 82
4 187 73 78 77
4 21 22 187 165
4 78 81 167 77
4 187 22 77 165
4 187 165 167 178
4 187 167 78 178
4 167 165 187 77
4 78 167 187 77
4 151 149 188 171
4 6 35 190 191
4 68 86 191 74
4 190 76 5 74
4 68 74 190 5
4 68 190 6 5
4 190 74 68 191
4 6 190 68 191
4 177 86 186 192
4 177 154 173 174
4 173 186 177 174
4 177 186 173 192
4 180 76 193 75
4 186 86 74 194
4 74 76 75 193
4 176 74 186 75
4 194 86 74 191
4 74 76 193 190
4 74 190 65 191
4 186 86 194 192
4 194 86 191 192
4 6 35 66 190
4 60 76 5 190
4 6 190 60 5
4 60 190 6 66
4 193 76 180 182
4 60 76 193 182
4 193 61 60 182
4 193 76 60 190
4 192 86 195 177
4 195 149 188 151
4 173 154 177 151
4 195 151 173 177
4 195 173 192 177
4 83 86 177 195
4 83 88 153 155
4 153 149 195 151
4 177 154 155 151
4 153 151 177 155
4 153 177 83 155
4 177 151 153 195
4 83 177 153 195
4 195 86 71 83
4 195 149 153 196
4 153 88 83 89
4 71 38 196 89
4 153 89 71 196
4 153 71 195 196
4 71 89 153 83
4 195 71 153 83
4 188 149 195 196
4 195 86 192 71
4 197 38 196 71
4 195 71 197 196
4 195 197 188 196
4 197 71 195 192
4 192 86 191 71
4 197 38 71 40
4 191 40 197 71
4 191 197 192 71
4 71 38 89 31
4 72 88 153 89
4 196 38 39 89
4 72 89 196 39
4 196 89 72 153
4 189 149 188 196
4 197 38 41 196
4 191 68 71 86
4 191 71 68 29
4 191 68 6 29
4 191 40 71 29
4 89 39 72 30
4 189 196 41 42
4 14 198 18 3
4 18 198 14 58
4 199 97 200 1
4 1 97 12 199
4 13 199 1 12
4 13 1 94 12
4 12 97 15 199
4 15 96 13 199
4 15 13 12 199
4 1 97 200 201
4 2 97 1 201
4 1 57 2 201
4 203 204 202 11
4 203 204 11 60
4 203 11 5 60
4 60 204 63 61
4 60 204 11 63
4 205 204 206 61
4 203 204 60 66
4 203 8 6 5
4 6 60 203 5
4 203 60 6 66
4 60 204 61 62
4 62 204 61 206
4 60 204 62 66
4 62 204 206 66
4 66 204 206 207
4 202 203 66 204
4 202 66 203 43
4 202 203 36 43
4 66 6 203 43
4 207 44 66 43
5 6 8 37 29 68
5 35 6 29 40 191
5 40 29 31 38 71
5 38 31 30 39 89
5 41 38 39 42 196
5 43 36 8 6 203
5 44 43 6 35 66
CELL_TYPES 592
10
10
10
10
10
10
10
10
10
10
10
10
10
10
10
10
10
10
10
10
10
10
10
10
10
10
10
10
10
10
10
10
10
10
10
10
10
10
10
10
10
10
10
10
10
10
10
10
10
10
10
10
10
10
10
10
10
10
10
10
10
10
10
10
10
10
10
10
10
10
10
10
10
10
10
10
10
10
10
10
10
10
10
10
10
10
10
10
10
10
10
10
10
10
10
10
10
10
10
10
10
10
10
10
10
10
10
10
10
10
10
10
10
10
10
10
10
10
10
10
10
10
10
10
10
10
10
10
10
10
10
10
10
10
10
10
10
10
10
10
10
10
10
10
10
10
10
10
10
10
10
10
10
10
10
10
10
10
10
10
10
10
10
10
10
10
10
10
10
10
10
10
10
10
10
10
10
10
10
10
10
10
10
10
10
10
10
10
10
10
10
10
10
10
10
10
10
10
10
10
10
10
10
10
10
10
10
10
10
10
10
10
10
10
10
10
10
10
10
10
10
10
10
10
10
10
10
10
10
10
10
10
10
10
10
10
10
10
10
10
10
10
10
10
10
10
10
10
10
10
10
10
10
10
10
10
10
10
10
10
10
10
10
10
10
10
10
10
10
10
10
10
10
10
10
10
10
10
10
10
10
10
10
10
10
10
10
10
10
10
10
10
10
10
10
10
10
10
10
10
10
10
10
10
10
10
10
10
10
10
10
10
10
10
10
10
10
10
10
10
10
10
10
10
10
10
10
10
10
10
10
10
10
10
10
10
10
10
10
10
10
10
10
10
10
10
10
10
10
10
10
10
10
10
10
10
10
10
10
10
10
10
10
10
10
10
10
10
10
10
10
10
10
10
10
10
10
10
10
10
10
10
10
10
10
10
10
10
10
10
10
10
10
10
10
10
10
10
10
10
10
10
10
10
10
10
10
10
10
10
10
10
10
10
10
10
10
10
10
10
10
10
10
10
10
10
10
10
10
10
10
10
10
10
10
10
10
10
10
10
10
10
10
10
10
10
10
10
10
10
10
10
10
10
10
10
10
10
10
10
10
10
10
10
10
10
10
10
10
10
10
10
10
10
10
10
10
10
10
10
10
10
10
10
10
10
10
10
10
10
10
10
10
10
10
10
10
10
10
10
10
10
10
10
10
10
10
10
10
10
10
10
10
10
10
10
10
10
10
10
10
10
10
10
10
10
10
10
10
10
10
10
10
10
10
10
10
10
10
10
10
10
10
10
10
10
10
10
10
10
10
10
10
10
10
10
10
10
10
10
10
10
10
10
10
10
10
10
10
10
10
10
10
10
10
10
10
10
10
10
10
10
10
10
10
14
14
14
14
14
14
14
POINT_DATA 208
SCALARS GLOBAL_ID int 1
LOOKUP_TABLE default
28 
30 
32 
46 
50 
52 
74 
83 
95 
191 
192 
193 
209 
210 
211 
215 
241 
242 
243 
244 
245 
246 
247 
255 
262 
271 
272 
274 
278 
294 
295 
296 
322 
323 
324 
501 
511 
581 
589 
590 
591 
593 
596 
611 
614 
1218 
1298 
1299 
1300 
1301 
1302 
1303 
1304 
1305 
1427 
1432 
1436 
1456 
1465 
1478 
1498 
1499 
1500 
1504 
1505 
1507 
1511 
1630 
1690 
1691 
1692 
1693 
1694 
1695 
1696 
1697 
1698 
1699 
1700 
1701 
1702 
1703 
1704 
1705 
1706 
1707 
1708 
1709 
1710 
1711 
1712 
1728 
1826 
1837 
1838 
1861 
1862 
1863 
2280 
2281 
2604 
3044 
3087 
3089 
3106 
3116 
3121 
3122 
3123 
3124 
3125 
3126 
3127 
3139 
3142 
3143 
3153 
3154 
3220 
3221 
3222 
3223 
3224 
3226 
3227 
3228 
3232 
3233 
3235 
3236 
3240 
3244 
3245 
3259 
3260 
3261 
3262 
3263 
3264 
3265 
3266 
3267 
3268 
3269 
3279 
3280 
3281 
3296 
3297 
3837 
3839 
3840 
3841 
3842 
3843 
3844 
3845 
3846 
3855 
3856 
3857 
3858 
3859 
3860 
3862 
3863 
3864 
3865 
3866 
3867 
3886 
3888 
3904 
3912 
3915 
3917 
3925 
3930 
3934 
3935 
3938 
3939 
3962 
3963 
3964 
3965 
3967 
3968 
3971 
3972 
3990 
3991 
3992 
3993 
3994 
4005 
4006 
4007 
4384 
4429 
4430 
4504 
4716 
4717 
4718 
4719 
4850 
4866 
SCALARS LOCAL_ID_L1 int 1
LOOKUP_TABLE default
0 
1 
2 
3 
4 
5 
6 
7 
8 
9 
10 
11 
12 
13 
14 
15 
16 
17 
18 
19 
20 
21 
22 
23 
24 
25 
26 
27 
28 
29 
30 
31 
32 
33 
34 
35 
36 
37 
38 
39 
40 
41 
42 
43 
44 
45 
46 
47 
48 
49 
50 
51 
52 
53 
54 
55 
56 
57 
58 
59 
60 
61 
62 
63 
64 
65 
66 
67 
68 
69 
70 
71 
72 
73 
74 
75 
76 
77 
78 
79 
80 
81 
82 
83 
84 
85 
86 
87 
88 
89 
90 
91 
92 
93 
94 
95 
96 
97 
98 
99 
100 
101 
102 
103 
104 
105 
106 
107 
108 
109 
110 
111 
112 
113 
114 
115 
116 
117 
118 
119 
120 
121 
122 
123 
124 
125 
126 
127 
128 
129 
130 
131 
132 
133 
134 
135 
136 
137 
138 
139 
140 
141 
142 
143 
144 
145 
146 
147 
148 
149 
150 
151 
152 
153 
154 
155 
156 
157 
158 
159 
160 
161 
162 
163 
164 
165 
166 
167 
168 
169 
170 
171 
172 
173 
174 
175 
176 
177 
178 
179 
180 
181 
182 
183 
184 
185 
186 
187 
188 
189 
190 
191 
192 
193 
194 
195 
196 
197 
198 
199 
200 
201 
202 
203 
204 
205 
206 
207 
CELL_DATA 592
SCALARS GLOBAL_ID int 1
LOOKUP_TABLE default
3052 
3053 
3054 
3055 
3057 
3058 
3062 
3063 
3064 
3065 
3454 
6086 
10466 
10467 
10468 
10474 
10480 
10481 
10482 
10483 
10484 
10485 
10486 
10490 
10491 
10492 
10496 
10499 
10500 
10501 
10502 
10624 
10625 
10627 
10628 
10630 
10631 
10632 
10679 
10680 
10682 
10685 
10686 
10687 
10688 
10689 
10692 
10693 
10695 
10699 
10701 
10860 
10868 
10882 
10889 
10891 
10892 
10895 
10901 
10903 
10907 
10908 
11319 
11326 
11329 
11330 
11331 
11332 
11333 
11334 
11335 
11336 
11337 
11338 
11339 
11340 
11342 
11343 
11344 
11345 
11687 
11688 
11689 
11691 
11692 
11693 
11694 
11696 
11697 
11698 
11707 
11708 
11709 
11710 
11711 
11712 
11713 
11714 
11715 
11716 
11717 
11718 
11719 
11720 
11721 
11722 
11763 
11764 
11765 
11766 
11767 
11768 
11769 
11770 
11771 
11772 
11773 
11774 
11778 
11779 
11783 
11785 
11796 
11797 
11801 
11803 
11824 
11825 
11827 
11829 
11831 
11834 
11848 
11849 
11850 
11851 
11852 
11853 
11854 
11855 
11856 
11857 
11890 
11891 
11892 
11893 
11894 
11895 
11896 
11897 
11898 
11899 
11900 
11901 
11902 
11903 
11904 
11905 
11906 
11907 
11908 
11909 
11910 
11911 
11912 
11913 
11914 
11915 
11916 
11917 
11918 
12038 
12054 
12055 
12059 
12060 
12061 
12064 
12068 
12071 
12072 
12074 
12075 
12076 
12077 
12078 
12081 
12083 
12085 
12086 
12087 
12089 
12090 
12091 
12093 
12159 
12163 
12165 
12166 
12167 
12168 
12169 
12170 
12171 
12172 
12173 
12174 
12175 
12176 
12177 
12178 
12179 
12180 
12181 
12182 
12183 
12184 
12185 
12186 
12187 
12188 
12189 
12193 
12293 
12295 
12296 
12297 
12299 
12300 
12301 
12302 
12303 
12304 
12305 
12306 
12307 
12308 
12309 
12310 
12311 
12312 
12313 
12314 
12315 
12316 
12317 
12318 
12319 
12320 
12321 
12322 
12323 
12324 
12325 
12326 
12327 
12328 
12329 
12330 
12331 
12332 
12333 
12334 
12335 
12336 
12337 
12338 
12339 
12340 
12341 
12342 
12343 
12344 
12345 
12346 
12347 
12348 
12349 
12350 
12351 
12352 
12353 
12354 
12355 
12356 
12380 
12381 
12382 
12383 
12384 
12385 
12386 
12387 
12388 
12389 
12390 
12391 
12392 
12393 
12578 
12871 
12872 
12874 
12875 
12876 
12877 
12949 
12950 
12952 
12953 
12956 
12957 
13177 
17330 
17331 
17332 
17333 
17334 
17335 
17336 
17337 
17338 
17339 
17340 
17341 
17342 
17343 
17344 
17345 
17346 
17347 
17348 
17349 
17350 
17351 
17353 
17355 
17356 
17388 
17391 
17396 
17397 
17398 
17399 
17400 
17401 
17402 
17403 
17404 
17405 
17406 
17407 
17408 
17409 
17410 
17411 
17412 
17413 
17414 
17415 
17416 
17417 
17418 
17419 
17420 
17421 
17422 
17423 
17424 
17425 
17426 
17427 
17429 
17430 
17431 
17432 
17433 
17434 
17435 
17567 
17569 
17570 
17571 
17625 
17626 
17628 
17702 
17703 
17704 
17705 
17707 
17708 
17710 
17711 
17713 
17726 
17727 
17728 
17729 
17730 
17731 
17732 
17733 
17815 
17817 
17818 
17819 
17820 
17821 
17822 
17953 
17954 
17955 
17958 
17959 
17960 
17961 
17962 
17964 
17965 
17966 
17967 
17968 
17969 
17970 
17972 
17973 
17974 
17975 
17976 
17977 
17978 
17980 
17981 
17982 
17984 
17985 
17987 
18056 
18057 
18058 
18059 
18060 
18061 
18062 
18063 
18064 
18069 
18070 
18071 
18072 
18073 
18074 
18075 
18077 
18081 
18084 
18085 
18088 
18089 
18091 
18092 
18093 
18097 
18098 
18099 
18100 
18115 
18120 
18122 
18123 
18124 
18125 
18128 
18134 
18136 
18138 
18139 
18140 
18141 
18164 
18290 
18291 
18292 
18293 
18294 
18295 
18296 
18297 
18298 
18302 
18304 
18307 
18313 
18316 
18318 
18321 
18324 
18327 
18331 
18339 
18345 
18346 
18347 
18348 
18352 
18357 
18361 
18365 
18579 
18580 
18581 
18582 
18583 
18586 
18587 
18588 
18589 
18590 
18591 
18592 
18593 
18594 
18595 
18596 
18597 
18598 
18599 
18600 
18601 
18603 
18604 
18605 
18606 
18607 
18608 
18611 
18613 
18614 
18615 
18618 
18621 
18622 
18623 
18625 
18629 
18630 
18692 
18693 
18694 
18695 
18696 
18701 
21814 
21815 
22089 
22096 
22097 
22098 
22190 
22192 
22193 
22794 
22799 
22802 
24682 
24833 
24836 
24845 
24846 
25466 
25472 
25473 
25474 
25475 
25476 
25477 
25485 
25488 
25806 
25934 
25935 
25938 
25939 
25940 
27649 
27774 
27775 
27776 
27779 
27914 
27915 
SCALARS Partition int 1
LOOKUP_TABLE default
10 
10 
10 
10 
10 
10 
10 
10 
10 
10 
10 
10 
10 
10 
10 
10 
10 
10 
10 
10 
10 
10 
10 
10 
10 
10 
10 
10 
10 
10 
10 
10 
10 
10 
10 
10 
10 
10 
10 
10 
10 
10 
10 
10 
10 
10 
10 
10 
10 
10 
10 
10 
10 
10 
10 
10 
10 
10 
10 
10 
10 
10 
10 
10 
10 
10 
10 
10 
10 
10 
10 
10 
10 
10 
10 
10 
10 
10 
10 
10 
10 
10 
10 
10 
10 
10 
10 
10 
10 
10 
10 
10 
10 
10 
10 
10 
10 
10 
10 
10 
10 
10 
10 
10 
10 
10 
10 
10 
10 
10 
10 
10 
10 
10 
10 
10 
10 
10 
10 
10 
10 
10 
10 
10 
10 
10 
10 
10 
10 
10 
10 
10 
10 
10 
10 
10 
10 
10 
10 
10 
10 
10 
10 
10 
10 
10 
10 
10 
10 
10 
10 
10 
10 
10 
10 
10 
10 
10 
10 
10 
10 
10 
10 
10 
10 
10 
10 
10 
10 
10 
10 
10 
10 
10 
10 
10 
10 
10 
10 
10 
10 
10 
10 
10 
10 
10 
10 
10 
10 
10 
10 
10 
10 
10 
10 
10 
10 
10 
10 
10 
10 
10 
10 
10 
10 
10 
10 
10 
10 
10 
10 
10 
10 
10 
10 
10 
10 
10 
10 
10 
10 
10 
10 
10 
10 
10 
10 
10 
10 
10 
10 
10 
10 
10 
10 
10 
10 
10 
10 
10 
10 
10 
10 
10 
10 
10 
10 
10 
10 
10 
10 
10 
10 
10 
10 
10 
10 
10 
10 
10 
10 
10 
10 
10 
10 
10 
10 
10 
10 
10 
10 
10 
10 
10 
10 
10 
10 
10 
10 
10 
10 
10 
10 
10 
10 
10 
10 
10 
10 
10 
10 
10 
10 
10 
10 
10 
10 
10 
10 
10 
10 
10 
10 
10 
10 
10 
10 
10 
10 
10 
10 
10 
10 
10 
10 
10 
10 
10 
10 
10 
10 
10 
10 
10 
10 
10 
10 
10 
10 
10 
10 
10 
10 
10 
10 
10 
10 
10 
10 
10 
10 
10 
10 
10 
10 
10 
10 
10 
10 
10 
10 
10 
10 
10 
10 
10 
10 
10 
10 
10 
10 
10 
10 
10 
10 
10 
10 
10 
10 
10 
10 
10 
10 
10 
10 
10 
10 
10 
10 
10 
10 
10 
10 
10 
10 
10 
10 
10 
10 
10 
10 
10 
10 
10 
10 
10 
10 
10 
10 
10 
10 
10 
10 
10 
10 
10 
10 
10 
10 
10 
10 
10 
10 
10 
10 
10 
10 
10 
10 
10 
10 
10 
10 
10 
10 
10 
10 
10 
10 
10 
10 
10 
10 
10 
10 
10 
10 
10 
10 
10 
10 
10 
10 
10 
10 
10 
10 
10 
10 
10 
10 
10 
10 
10 
10 
10 
10 
10 
10 
10 
10 
10 
10 
10 
10 
10 
10 
10 
10 
10 
10 
10 
10 
10 
10 
10 
10 
10 
10 
10 
10 
10 
10 
10 
10 
10 
10 
10 
10 
10 
10 
10 
10 
10 
10 
10 
10 
10 
10 
10 
10 
10 
10 
10 
10 
10 
10 
10 
10 
10 
10 
10 
10 
10 
10 
10 
10 
10 
10 
10 
10 
10 
10 
10 
10 
10 
10 
10 
10 
10 
10 
10 
10 
10 
10 
10 
10 
10 
10 
10 
10 
10 
10 
10 
10 
10 
10 
10 
10 
10 
10 
10 
10 
10 
10 
10 
10 
10 
10 
10 
10 
10 
10 
10 
10 
10 
10 
10 
10 
10 
10 
10 
10 
10 
10 
10 
10 
10 
10 
10 
10 
10 
10 
10 
10 
10 
10 
10 
10 
10 
10 
10 
SCALARS LOCAL_ID_L1 int 1
LOOKUP_TABLE default
0 
1 
2 
3 
4 
5 
6 
7 
8 
9 
10 
11 
12 
13 
14 
15 
16 
17 
18 
19 
20 
21 
22 
23 
24 
25 
26 
27 
28 
29 
30 
31 
32 
33 
34 
35 
36 
37 
38 
39 
40 
41 
42 
43 
44 
45 
46 
47 
48 
49 
50 
51 
52 
53 
54 
55 
56 
57 
58 
59 
60 
61 
62 
63 
64 
65 
66 
67 
68 
69 
70 
71 
72 
73 
74 
75 
76 
77 
78 
79 
80 
81 
82 
83 
84 
85 
86 
87 
88 
89 
90 
91 
92 
93 
94 
95 
96 
97 
98 
99 
100 
101 
102 
103 
104 
105 
106 
107 
108 
109 
110 
111 
112 
113 
114 
115 
116 
117 
118 
119 
120 
121 
122 
123 
124 
125 
126 
127 
128 
129 
130 
131 
132 
133 
134 
135 
136 
137 
138 
139 
140 
141 
142 
143 
144 
145 
146 
147 
148 
149 
150 
151 
152 
153 
154 
155 
156 
157 
158 
159 
160 
161 
162 
163 
164 
165 
166 
167 
168 
169 
170 
171 
172 
173 
174 
175 
176 
177 
178 
179 
180 
181 
182 
183 
184 
185 
186 
187 
188 
189 
190 
191 
192 
193 
194 
195 
196 
197 
198 
199 
200 
201 
202 
203 
204 
205 
206 
207 
208 
209 
210 
211 
212 
213 
214 
215 
216 
217 
218 
219 
220 
221 
222 
223 
224 
225 
226 
227 
228 
229 
230 
231 
232 
233 
234 
235 
236 
237 
238 
239 
240 
241 
242 
243 
244 
245 
246 
247 
248 
249 
250 
251 
252 
253 
254 
255 
256 
257 
258 
259 
260 
261 
262 
263 
264 
265 
266 
267 
268 
269 
270 
271 
272 
273 
274 
275 
276 
277 
278 
279 
280 
281 
282 
283 
284 
285 
286 
287 
288 
289 
290 
291 
292 
293 
294 
295 
296 
297 
298 
299 
300 
301 
302 
303 
304 
305 
306 
307 
308 
309 
310 
311 
312 
313 
314 
315 
316 
317 
318 
319 
320 
321 
322 
323 
324 
325 
326 
327 
328 
329 
330 
331 
332 
333 
334 
335 
336 
337 
338 
339 
340 
341 
342 
343 
344 
345 
346 
347 
348 
349 
350 
351 
352 
353 
354 
355 
356 
357 
358 
359 
360 
361 
362 
363 
364 
365 
366 
367 
368 
369 
370 
371 
372 
373 
374 
375 
376 
377 
378 
379 
380 
381 
382 
383 
384 
385 
386 
387 
388 
389 
390 
391 
392 
393 
394 
395 
396 
397 
398 
399 
400 
401 
402 
403 
404 
405 
406 
407 
408 
409 
410 
411 
412 
413 
414 