# vtk DataFile Version 3.0
MOAB 5.1.1
ASCII
DATASET UNSTRUCTURED_GRID
POINTS 346 double
0 0 1
0 0.5 0.5
0 0 0.5
0 0.5 1
0 0.5 0.875
0 0.5 0.75
0 0.5 0.625
0 0.125 0.5
0 0.25 0.5
0 0.375 0.5
0 0 0.625
0 0 0.75
0 0 0.875
0 0.125 1
0 0.25 1
0 0.375 1
0.125 0.5 1
0.25 0.5 1
0.375 0.5 1
0.5 0.5 1
0.125 0 1
0.25 0 1
0.375 0 1
0.5 0 1
0.125 0 0.5
0.25 0 0.5
0.375 0 0.5
0.5 0 0.5
0.125 0.5 0.5
0.25 0.5 0.5
0.375 0.5 0.5
0.5 0.5 0.5
0.25 0.5 0.75
0.125 0.5 0.625
0.125 0.5 0.875
0.375 0.5 0.625
0.375 0.5 0.875
0.5 0.5 0.75
0.0625 0.5 0.5625
0.0625 0.5 0.6875
0.125 0.5 0.75
0.0625 0.5 0.8125
0.1875 0.5 0.6875
0.1875 0.5 0.8125
0.0625 0.5 0.9375
0.1875 0.5 0.5625
0.3125 0.5 0.5625
0.25 0.5 0.625
0.4375 0.5 0.5625
0.3125 0.5 0.6875
0.5625 0.5 0.5625
0.1875 0.5 0.9375
0.25 0.5 0.875
0.3125 0.5 0.9375
0.3125 0.5 0.8125
0.4375 0.5 0.9375
0.5625 0.5 0.9375
0.5 0.5 0.875
0.4375 0.5 0.8125
0.5625 0.5 0.8125
0.375 0.5 0.75
0.5 0.5 0.625
0.5625 0.5 0.6875
0.4375 0.5 0.6875
0.25 0.25 0.5
0.125 0.125 0.5
0.125 0.375 0.5
0.375 0.375 0.5
0.375 0.125 0.5
0.5 0.25 0.5
0.0625 0.3125 0.5
0.0625 0.4375 0.5
0.0625 0.1875 0.5
0.125 0.25 0.5
0.0625 0.0625 0.5
0.1875 0.1875 0.5
0.1875 0.3125 0.5
0.1875 0.4375 0.5
0.25 0.375 0.5
0.3125 0.4375 0.5
0.3125 0.3125 0.5
0.4375 0.4375 0.5
0.5625 0.0625 0.5
0.1875 0.0625 0.5
0.3125 0.0625 0.5
0.25 0.125 0.5
0.4375 0.0625 0.5
0.3125 0.1875 0.5
0.5 0.125 0.5
0.5625 0.1875 0.5
0.4375 0.1875 0.5
0.375 0.25 0.5
0.5 0.375 0.5
0.4375 0.3125 0.5
0.25 0 0.75
0.125 0 0.875
0.125 0 0.625
0.375 0 0.875
0.375 0 0.625
0.5 0 0.75
0.0625 0 0.9375
0.0625 0 0.8125
0.125 0 0.75
0.0625 0 0.6875
0.1875 0 0.8125
0.1875 0 0.6875
0.0625 0 0.5625
0.1875 0 0.9375
0.3125 0 0.9375
0.25 0 0.875
0.4375 0 0.9375
0.3125 0 0.8125
0.5625 0 0.9375
0.5625 0 0.5625
0.1875 0 0.5625
0.25 0 0.625
0.3125 0 0.5625
0.3125 0 0.6875
0.4375 0 0.5625
0.5 0 0.875
0.5625 0 0.8125
0.4375 0 0.8125
0.375 0 0.75
0.5 0 0.625
0.4375 0 0.6875
0.5625 0 0.6875
0 0.25 0.75
0 0.125 0.625
0 0.125 0.875
0 0.375 0.875
0 0.375 0.625
0 0.1875 0.6875
0 0.125 0.75
0 0.1875 0.8125
0 0.0625 0.6875
0 0.0625 0.8125
0 0.0625 0.5625
0 0.0625 0.9375
0 0.4375 0.9375
0 0.3125 0.9375
0 0.25 0.875
0 0.1875 0.9375
0 0.3125 0.8125
0 0.1875 0.5625
0 0.25 0.625
0 0.3125 0.5625
0 0.3125 0.6875
0 0.4375 0.5625
0 0.375 0.75
0 0.4375 0.8125
0 0.4375 0.6875
0.25 0.25 1
0.125 0.375 1
0.125 0.125 1
0.375 0.125 1
0.375 0.375 1
0.5 0.25 1
0.0625 0.1875 1
0.0625 0.0625 1
0.0625 0.3125 1
0.125 0.25 1
0.0625 0.4375 1
0.1875 0.3125 1
0.1875 0.1875 1
0.1875 0.0625 1
0.25 0.125 1
0.3125 0.0625 1
0.3125 0.1875 1
0.4375 0.0625 1
0.1875 0.4375 1
0.3125 0.4375 1
0.25 0.375 1
0.4375 0.4375 1
0.3125 0.3125 1
0.5625 0.4375 1
0.5 0.375 1
0.5625 0.3125 1
0.4375 0.3125 1
0.375 0.25 1
0.5 0.125 1
0.4375 0.1875 1
0.5 0.125 0.625
0.5 0.375 0.625
0.25 0.125 0.875
0.25 0.125 0.625
0.25 0.25 0.75
0.5 0.125 0.875
0.5 0.375 0.875
0.25 0.375 0.875
0.25 0.375 0.625
0.125 0.25 0.875
0.125 0.25 0.625
0.125 0.375 0.75
0.125 0.125 0.75
0.375 0.1875 0.5625
0.375 0.3125 0.5625
0.5 0.25 0.625
0.5 0.1875 0.5625
0.5 0.3125 0.5625
0.25 0.1875 0.9375
0.375 0.1875 0.9375
0.375 0.125 0.875
0.25 0.1875 0.8125
0.375 0.1875 0.8125
0.25 0.25 0.875
0.25 0.0625 0.8125
0.25 0.0625 0.6875
0.25 0.125 0.75
0.375 0.0625 0.8125
0.375 0.0625 0.6875
0.25 0.1875 0.5625
0.25 0.25 0.625
0.25 0.1875 0.6875
0.375 0.125 0.625
0.375 0.1875 0.6875
0.5 0.0625 0.8125
0.5 0.125 0.75
0.5 0.0625 0.6875
0.375 0.125 0.75
0.375 0.3125 0.6875
0.375 0.3125 0.8125
0.5 0.25 0.875
0.375 0.3125 0.9375
0.5 0.375 0.75
0.5 0.25 0.75
0.5 0.1875 0.9375
0.5 0.3125 0.9375
0.25 0.4375 0.8125
0.375 0.4375 0.8125
0.25 0.375 0.75
0.375 0.4375 0.6875
0.25 0.4375 0.6875
0.25 0.3125 0.9375
0.25 0.3125 0.8125
0.375 0.375 0.875
0.25 0.3125 0.5625
0.25 0.3125 0.6875
0.375 0.375 0.625
0.5 0.4375 0.8125
0.5 0.4375 0.6875
0.375 0.375 0.75
0.4375 0.125 0.9375
0.5 0.0625 0.9375
0.5625 0.0625 0.875
0.5625 0.125 0.9375
0.3125 0.125 0.5625
0.4375 0.125 0.5625
0.3125 0.0625 0.625
0.375 0.0625 0.5625
0.5 0.0625 0.5625
0.5625 0.0625 0.625
0.4375 0.0625 0.625
0.3125 0.0625 0.875
0.3125 0.125 0.9375
0.375 0.0625 0.9375
0.4375 0.0625 0.875
0.4375 0.375 0.5625
0.5 0.4375 0.5625
0.5625 0.4375 0.625
0.5625 0.375 0.5625
0.4375 0.375 0.9375
0.5 0.4375 0.9375
0.5625 0.4375 0.875
0.5625 0.375 0.9375
0.3125 0.375 0.9375
0.3125 0.4375 0.875
0.375 0.4375 0.9375
0.4375 0.4375 0.875
0.3125 0.4375 0.625
0.3125 0.375 0.5625
0.375 0.4375 0.5625
0.4375 0.4375 0.625
0.5625 0.125 0.5625
0.1875 0.25 0.9375
0.1875 0.3125 0.875
0.1875 0.25 0.8125
0.1875 0.375 0.8125
0.1875 0.375 0.6875
0.1875 0.4375 0.75
0.1875 0.3125 0.625
0.1875 0.25 0.6875
0.1875 0.25 0.5625
0.0625 0.25 0.8125
0.0625 0.3125 0.75
0.125 0.3125 0.8125
0.125 0.25 0.75
0.125 0.3125 0.6875
0.0625 0.25 0.6875
0.1875 0.3125 0.75
0.0625 0.125 0.5625
0.0625 0.375 0.5625
0.0625 0.3125 0.625
0.0625 0.1875 0.625
0.125 0.1875 0.5625
0.125 0.3125 0.5625
0.0625 0.25 0.5625
0.0625 0.0625 0.875
0.125 0.0625 0.8125
0.125 0.0625 0.6875
0.1875 0.0625 0.75
0.0625 0.0625 0.625
0.0625 0.1875 0.75
0.0625 0.125 0.8125
0.0625 0.125 0.6875
0.0625 0.0625 0.75
0.0625 0.125 0.9375
0.0625 0.375 0.9375
0.125 0.3125 0.9375
0.125 0.1875 0.9375
0.0625 0.1875 0.875
0.0625 0.3125 0.875
0.0625 0.25 0.9375
0.0625 0.4375 0.625
0.0625 0.4375 0.875
0.0625 0.375 0.8125
0.0625 0.375 0.6875
0.125 0.4375 0.6875
0.125 0.4375 0.8125
0.0625 0.4375 0.75
0.1875 0.125 0.8125
0.1875 0.125 0.6875
0.1875 0.1875 0.875
0.1875 0.1875 0.625
0.125 0.1875 0.8125
0.125 0.1875 0.6875
0.1875 0.1875 0.75
0.1875 0.0625 0.625
0.125 0.0625 0.5625
0.1875 0.125 0.5625
0.25 0.0625 0.5625
0.1875 0.4375 0.875
0.125 0.4375 0.9375
0.1875 0.375 0.9375
0.25 0.4375 0.9375
0.125 0.0625 0.9375
0.1875 0.0625 0.875
0.1875 0.125 0.9375
0.25 0.0625 0.9375
0.125 0.4375 0.5625
0.1875 0.4375 0.625
0.1875 0.375 0.5625
0.25 0.4375 0.5625
0.125 0.375 0.625
0.125 0.375 0.875
0.125 0.125 0.625
0.125 0.125 0.875
CELLS 1326 6630
4 194 181 197 196
4 194 64 195 91
4 195 182 196 198
4 197 69 91 198
4 195 198 197 91
4 195 197 194 91
4 197 198 195 196
4 194 197 195 196
4 199 183 202 201
4 199 151 200 204
4 200 186 201 203
4 202 185 204 203
4 200 203 202 204
4 200 202 199 204
4 202 203 200 201
4 199 202 200 201
4 205 183 208 207
4 205 94 206 122
4 206 184 207 209
4 208 99 122 209
4 206 209 208 122
4 206 208 205 122
4 208 209 206 207
4 205 208 206 207
4 210 184 213 212
4 210 64 211 194
4 211 185 212 214
4 213 181 194 214
4 211 214 213 194
4 211 213 210 194
4 213 214 211 212
4 210 213 211 212
4 213 184 209 218
4 213 181 216 217
4 216 186 218 215
4 209 99 217 215
4 216 215 209 217
4 216 209 213 217
4 209 215 216 218
4 213 209 216 218
4 218 184 209 207
4 218 186 201 215
4 201 183 207 208
4 209 99 215 208
4 201 208 209 215
4 201 209 218 215
4 209 208 201 207
4 218 209 201 207
4 216 186 203 218
4 216 181 213 214
4 213 184 218 212
4 203 185 214 212
4 213 212 203 214
4 213 203 216 214
4 203 212 213 218
4 216 203 213 218
4 201 183 202 207
4 201 186 218 203
4 218 184 207 212
4 202 185 203 212
4 218 212 202 203
4 218 202 201 203
4 202 212 218 207
4 201 202 218 207
4 211 185 214 219
4 211 64 195 194
4 195 182 219 196
4 214 181 194 196
4 195 196 214 194
4 195 214 211 194
4 214 196 195 219
4 211 214 195 219
4 204 185 220 203
4 204 151 200 222
4 200 186 203 221
4 220 187 222 221
4 200 221 220 222
4 200 220 204 222
4 220 221 200 203
4 204 220 200 203
4 224 186 221 203
4 224 182 219 223
4 219 185 203 220
4 221 187 223 220
4 219 220 221 223
4 219 221 224 223
4 221 220 219 203
4 224 221 219 203
4 219 185 214 203
4 219 182 224 196
4 224 186 203 216
4 214 181 196 216
4 224 216 214 196
4 224 214 219 196
4 214 216 224 203
4 219 214 224 203
4 200 186 221 225
4 200 151 178 222
4 178 156 225 226
4 221 187 222 226
4 178 226 221 222
4 178 221 200 222
4 221 226 178 225
4 200 221 178 225
4 227 188 229 228
4 227 32 60 231
4 60 37 228 230
4 229 189 231 230
4 60 230 229 231
4 60 229 227 231
4 229 230 60 228
4 227 229 60 228
4 232 188 234 233
4 232 151 204 222
4 204 185 233 220
4 234 187 222 220
4 204 220 234 222
4 204 234 232 222
4 234 220 204 233
4 232 234 204 233
4 211 185 219 236
4 211 64 235 195
4 235 189 236 237
4 219 182 195 237
4 235 237 219 195
4 235 219 211 195
4 219 237 235 236
4 211 219 235 236
4 219 185 220 240
4 219 182 239 223
4 239 37 240 238
4 220 187 223 238
4 239 238 220 223
4 239 220 219 223
4 220 238 239 240
4 219 220 239 240
4 240 185 220 233
4 240 37 228 238
4 228 188 233 234
4 220 187 238 234
4 228 234 220 238
4 228 220 240 238
4 220 234 228 233
4 240 220 228 233
4 239 37 230 240
4 239 182 219 237
4 219 185 240 236
4 230 189 237 236
4 219 236 230 237
4 219 230 239 237
4 230 236 219 240
4 239 230 219 240
4 228 188 229 233
4 228 37 240 230
4 240 185 233 236
4 229 189 230 236
4 240 236 229 230
4 240 229 228 230
4 229 236 240 233
4 228 229 240 233
4 167 154 241 180
4 167 151 178 200
4 178 156 180 225
4 241 186 200 225
4 178 225 241 200
4 178 241 167 200
4 241 225 178 180
4 167 241 178 180
4 168 154 179 242
4 168 179 112 242
4 180 154 242 179
4 180 154 241 242
4 180 156 244 225
4 241 186 225 243
4 244 241 180 225
4 180 241 244 242
4 210 184 245 213
4 210 64 194 87
4 194 181 213 246
4 245 68 87 246
4 194 246 245 87
4 194 245 210 87
4 245 246 194 213
4 210 245 194 213
4 206 184 209 247
4 206 94 117 122
4 117 98 247 124
4 209 99 122 124
4 117 124 209 122
4 117 209 206 122
4 209 124 117 247
4 206 209 117 247
4 118 98 123 248
4 118 27 86 113
4 86 68 248 249
4 86 249 123 113
4 86 123 118 113
4 123 249 86 248
4 118 123 86 248
4 123 98 124 251
4 250 181 251 217
4 124 99 125 217
4 124 217 250 251
4 123 124 250 251
4 251 98 124 247
4 251 181 213 217
4 213 184 247 209
4 124 99 217 209
4 213 209 124 217
4 213 124 251 217
4 124 209 213 247
4 251 124 213 247
4 250 181 246 251
4 123 98 251 248
4 246 68 249 248
4 123 248 246 249
4 123 246 250 249
4 246 248 123 251
4 250 246 123 251
4 213 184 245 247
4 213 181 251 246
4 251 98 247 248
4 245 68 246 248
4 251 248 245 246
4 251 245 213 246
4 245 248 251 247
4 213 245 251 247
4 205 183 252 208
4 205 94 122 111
4 122 99 208 121
[...]
POINT_DATA 346
SCALARS GLOBAL_ID int 1
LOOKUP_TABLE default
4 
8 
13 
15 
18 
19 
20 
21 
22 
23 
81 
82 
83 
84 
85 
86 
111 
112 
113 
114 
118 
119 
120 
121 
125 
126 
127 
128 
146 
147 
148 
149 
207 
208 
209 
210 
214 
216 
217 
218 
219 
220 
221 
222 
223 
224 
225 
226 
227 
228 
240 
241 
242 
243 
244 
245 
249 
251 
252 
253 
254 
256 
257 
258 
313 
314 
315 
316 
321 
322 
323 
324 
325 
326 
327 
328 
329 
330 
331 
332 
333 
334 
351 
352 
353 
354 
355 
356 
357 
358 
359 
361 
362 
363 
366 
367 
368 
369 
374 
375 
376 
377 
378 
379 
380 
381 
382 
383 
384 
385 
386 
387 
399 
403 
405 
406 
407 
408 
409 
410 
411 
412 
414 
415 
416 
417 
702 
703 
704 
705 
706 
707 
708 
709 
710 
711 
712 
713 
714 
715 
716 
717 
718 
719 
720 
721 
722 
723 
724 
725 
726 
831 
832 
833 
834 
838 
840 
841 
842 
843 
844 
845 
846 
847 
848 
849 
850 
851 
852 
865 
866 
867 
868 
869 
874 
875 
876 
877 
879 
880 
881 
1898 
1899 
1903 
1904 
1905 
1906 
1907 
1910 
1911 
1915 
1916 
1917 
1918 
1926 
1927 
1928 
1929 
1930 
1943 
1944 
1945 
1946 
1947 
1948 
1949 
1950 
1951 
1952 
1953 
1954 
1955 
1956 
1957 
1958 
1960 
1961 
1962 
1963 
1964 
1965 
1966 
1967 
1970 
1972 
1976 
1977 
1987 
1988 
1989 
1990 
1991 
1992 
1993 
1994 
1995 
1996 
1997 
1998 
1999 
2000 
2001 
2002 
2004 
2007 
2008 
2009 
2010 
2011 
2012 
2013 
2014 
2015 
2016 
2017 
2018 
2019 
2020 
2022 
2025 
2026 
2027 
2030 
2032 
2033 
2034 
2035 
2036 
2037 
2038 
2039 
2040 
2044 
2061 
2062 
2063 
2064 
2065 
2066 
2067 
2068 
2069 
2070 
2071 
2072 
2073 
2074 
2075 
2076 
2077 
2078 
2079 
2080 
2081 
2082 
2083 
2084 
2085 
2086 
2087 
2088 
2089 
2090 
2091 
2092 
2093 
2094 
2095 
2096 
2097 
2098 
2099 
2100 
2101 
2102 
2103 
2104 
2105 
2106 
2107 
2108 
2109 
2110 
2111 
2112 
2113 
2167 
2168 
2169 
2170 
2171 
2172 
2173 
2174 
2175 
2176 
2177 
2178 
2179 
2180 
2181 
2182 
2187 
2188 
2189 
2190 
SCALARS LOCAL_ID_L1-0 int 1
LOOKUP_TABLE default
0 
1 
2 
0 
0 
0 
0 
4 
5 
6 
0 
0 
0 
0 
0 
0 
0 
0 
0 
0 
0 
0 
0 
0 
16 
17 
18 
19 
28 
29 
30 
31 
0 
0 
0 
0 
0 
0 
0 
0 
0 
0 
0 
0 
0 
0 
0 
0 
0 
0 
0 
0 
0 
0 
0 
0 
0 
0 
0 
0 
0 
0 
0 
0 
64 
65 
66 
67 
68 
69 
70 
71 
72 
73 
74 
75 
76 
77 
78 
79 
80 
81 
83 
84 
85 
86 
87 
88 
89 
90 
91 
92 
93 
94 
0 
0 
0 
0 
0 
0 
0 
0 
0 
0 
0 
0 
0 
0 
0 
0 
0 
0 
0 
0 
0 
0 
0 
0 
0 
0 
0 
0 
0 
0 
0 
0 
0 
0 
0 
0 
0 
0 
0 
0 
0 
0 
0 
0 
0 
0 
0 
0 
0 
0 
0 
0 
0 
0 
0 
0 
0 
0 
0 
0 
0 
0 
0 
0 
0 
0 
0 
0 
0 
0 
0 
0 
0 
0 
0 
0 
0 
0 
0 
0 
0 
0 
0 
0 
0 
0 
0 
0 
0 
0 
0 
0 
0 
0 
0 
0 
0 
0 
0 
0 
0 
0 
0 
0 
0 
0 
0 
0 
0 
0 
0 
0 
0 
0 
0 
0 
0 
0 
0 
0 
0 
0 
0 
0 
0 
0 
0 
0 
0 
0 
0 
0 
0 
0 
0 
0 
0 
0 
0 
0 
0 
0 
0 
0 
0 
0 
0 
0 
0 
0 
0 
0 
0 
0 
0 
0 
0 
0 
0 
0 
0 
0 
0 
0 
0 
0 
0 
0 
0 
0 
0 
0 
0 
0 
0 
0 
0 
0 
0 
0 
0 
0 
0 
0 
0 
0 
0 
0 
0 
0 
0 
0 
0 
0 
0 
0 
0 
0 
0 
0 
0 
0 
0 
0 
0 
0 
0 
0 
0 
0 
0 
0 
0 
0 
0 
0 
0 
0 
0 
0 
0 
0 
0 
0 
0 
0 
0 
0 
0 
0 
0 
0 
0 
0 
0 
0 
0 
0 
0 
0 
0 
0 
0 
0 
0 
0 
0 
0 
0 
0 
0 
0 
SCALARS LOCAL_ID_L1-1 int 1
LOOKUP_TABLE default
0 
1 
2 
3 
4 
5 
6 
7 
8 
9 
10 
11 
12 
13 
14 
15 
16 
17 
18 
19 
20 
21 
22 
23 
24 
25 
26 
27 
28 
29 
30 
31 
32 
33 
34 
35 
36 
37 
38 
39 
40 
41 
42 
43 
44 
45 
46 
47 
48 
49 
50 
51 
52 
53 
54 
55 
56 
57 
58 
59 
60 
61 
62 
63 
64 
65 
66 
67 
68 
69 
70 
71 
72 
73 
74 
75 
76 
77 
78 
79 
80 
81 
82 
83 
84 
85 
86 
87 
88 
89 
90 
91 
92 
93 
94 
95 
96 
97 
98 
99 
100 
101 
102 
103 
104 
105 
106 
107 
108 
109 
110 
111 
112 
113 
114 
115 
116 
117 
118 
119 
120 
121 
122 
123 
124 
125 
126 
127 
128 
129 
130 
131 
132 
133 
134 
135 
136 
137 
138 
139 
140 
141 
142 
143 
144 
145 
146 
147 
148 
149 
150 
151 
152 
153 
154 
155 
156 
157 
158 
159 
160 
161 
162 
163 
164 
165 
166 
167 
168 
169 
170 
171 
172 
173 
174 
175 
176 
177 
178 
179 
180 
181 
182 
183 
184 
185 
186 
187 
188 
189 
190 
191 
192 
193 
194 
195 
196 
197 
198 
199 
200 
201 
202 
203 
204 
205 
206 
207 
208 
209 
210 
211 
212 
213 
214 
215 
216 
217 
218 
219 
220 
221 
222 
223 
224 
225 
226 
227 
228 
229 
230 
231 
232 
233 
234 
235 
236 
237 
238 
239 
240 
241 
242 
243 
244 
245 
246 
247 
248 
249 
250 
251 
252 
253 
254 
255 
256 
257 
258 
259 
260 
261 
262 
263 
264 
265 
266 
267 
268 
269 
270 
271 
272 
273 
274 
275 
276 
277 
278 
279 
280 
281 
282 
283 
284 
285 
286 
287 
288 
289 
290 
291 
292 
293 
294 
295 
296 
297 
298 
299 
300 
301 
302 
303 
304 
305 
306 
307 
308 
309 
310 
311 
312 
313 
314 
315 
316 
317 
318 
319 
320 
321 
322 
323 
324 
325 
326 
327 
328 
329 
330 
331 
332 
333 
334 
335 
336 
337 
338 
339 
340 
341 
342 
343 
344 
345 
SCALARS LOCAL_ID_L1-2 int 1
LOOKUP_TABLE default
0 
1 
0 
0 
0 
0 
0 
0 
0 
0 
0 
0 
0 
0 
0 
0 
0 
0 
0 
0 
0 
0 
0 
0 
0 
0 
0 
0 
28 
29 
30 
31 
0 
0 
0 
0 
0 
0 
0 
0 
0 
0 
0 
0 
0 
0 
0 
0 
0 
0 
0 
0 
0 
0 
0 
0 
0 
0 
0 
0 
0 
0 
0 
0 
0 
0 
0 
0 
0 
0 
0 
0 
0 
0 
0 
0 
0 
0 
0 
0 
0 
0 
0 
0 
0 
0 
0 
0 
0 
0 
0 
0 
0 
0 
0 
0 
0 
0 
0 
0 
0 
0 
0 
0 
0 
0 
0 
0 
0 
0 
0 
0 
0 
0 
0 
0 
0 
0 
0 
0 
0 
0 
0 
0 
0 
0 
0 
0 
0 
0 
0 
0 
0 
0 
0 
0 
0 
0 
0 
0 
0 
0 
0 
0 
0 
0 
0 
0 
0 
0 
0 
0 
0 
0 
0 
0 
0 
0 
0 
0 
0 
0 
0 
0 
0 
0 
0 
0 
0 
0 
0 
0 
0 
0 
0 
0 
0 
0 
0 
0 
0 
0 
0 
0 
0 
0 
0 
0 
0 
0 
0 
0 
0 
0 
0 
0 
0 
0 
0 
0 
0 
0 
0 
0 
0 
0 
0 
0 
0 
0 
0 
0 
0 
0 
0 
0 
0 
0 
0 
0 
0 
0 
0 
0 
0 
0 
0 
0 
0 
0 
0 
0 
0 
0 
0 
0 
0 
0 
0 
0 
0 
0 
0 
0 
0 
0 
0 
0 
0 
0 
0 
0 
0 
0 
0 
0 
0 
0 
0 
0 
0 
0 
0 
0 
0 
0 
0 
0 
0 
0 
0 
0 
0 
0 
0 
0 
0 
0 
0 
0 
0 
0 
0 
0 
0 
0 
0 
0 
0 
0 
0 
0 
0 
0 
0 
0 
0 
0 
0 
0 
0 
0 
0 
0 
0 
0 
0 
0 
0 
0 
0 
0 
0 
0 
0 
0 
0 
0 
0 
0 
0 
0 
0 
0 
0 
0 
0 
0 
0 
0 
0 
0 
0 
0 
0 
0 
0 
0 
0 
0 
0 
0 
0 
0 
0 
0 
SCALARS LOCAL_ID_L1-3 int 1
LOOKUP_TABLE default
0 
1 
0 
3 
4 
5 
6 
0 
0 
0 
0 
0 
0 
0 
0 
0 
24 
25 
26 
27 
0 
0 
0 
0 
0 
0 
0 
0 
28 
29 
30 
31 
32 
33 
34 
35 
36 
37 
38 
39 
40 
41 
42 
43 
44 
45 
46 
47 
48 
49 
50 
51 
52 
53 
54 
55 
56 
57 
58 
59 
60 
61 
62 
63 
0 
0 
0 
0 
0 
0 
0 
0 
0 
0 
0 
0 
0 
0 
0 
0 
0 
0 
0 
0 
0 
0 
0 
0 
0 
0 
0 
0 
0 
0 
0 
0 
0 
0 
0 
0 
0 
0 
0 
0 
0 
0 
0 
0 
0 
0 
0 
0 
0 
0 
0 
0 
0 
0 
0 
0 
0 
0 
0 
0 
0 
0 
0 
0 
0 
0 
0 
0 
0 
0 
0 
0 
0 
0 
0 
0 
0 
0 
0 
0 
0 
0 
0 
0 
0 
0 
0 
0 
0 
0 
0 
0 
0 
0 
0 
0 
0 
0 
0 
0 
0 
0 
0 
0 
0 
0 
0 
0 
0 
0 
0 
0 
0 
0 
0 
0 
0 
0 
0 
0 
0 
0 
0 
0 
0 
0 
0 
0 
0 
0 
0 
0 
0 
0 
0 
0 
0 
0 
0 
0 
0 
0 
0 
0 
0 
0 
0 
0 
0 
0 
0 
0 
0 
0 
0 
0 
0 
0 
0 
0 
0 
0 
0 
0 
0 
0 
0 
0 
0 
0 
0 
0 
0 
0 
0 
0 
0 
0 
0 
0 
0 
0 
0 
0 
0 
0 
0 
0 
0 
0 
0 
0 
0 
0 
0 
0 
0 
0 
0 
0 
0 
0 
0 
0 
0 
0 
0 
0 
0 
0 
0 
0 
0 
0 
0 
0 
0 
0 
0 
0 
0 
0 
0 
0 
0 
0 
0 
0 
0 
0 
0 
0 
0 
0 
0 
0 
0 
0 
0 
0 
0 
0 
0 
0 
0 
0 
0 
0 
0 
0 
0 
0 
0 
0 
0 
0 
0 
0 
0 
0 
0 
0 
0 
0 
0 
0 
0 
0 
0 
0 
0 
0 
0 
0 
0 
0 
0 
0 
0 
0 
0 
0 
SCALARS LOCAL_ID_L1-4 int 1
LOOKUP_TABLE default
0 
0 
0 
0 
0 
0 
0 
0 
0 
0 
0 
0 
0 
0 
0 
0 
0 
0 
0 
0 
0 
0 
0 
0 
0 
0 
0 
16 
0 
0 
0 
28 
0 
0 
0 
0 
0 
0 
0 
0 
0 
0 
0 
0 
0 
0 
0 
0 
0 
0 
0 
0 
0 
0 
0 
0 
0 
0 
0 
0 
0 
0 
0 
0 
0 
0 
0 
0 
0 
66 
0 
0 
0 
0 
0 
0 
0 
0 
0 
0 
0 
67 
84 
0 
0 
0 
0 
0 
85 
86 
87 
0 
89 
0 
0 
0 
0 
0 
0 
0 
0 
0 
0 
0 
0 
0 
0 
0 
0 
0 
0 
0 
0 
0 
0 
0 
0 
0 
0 
0 
0 
0 
0 
0 
0 
0 
0 
0 
0 
0 
0 
0 
0 
0 
0 
0 
0 
0 
0 
0 
0 
0 
0 
0 
0 
0 
0 
0 
0 
0 
0 
0 
0 
0 
0 
0 
0 
0 
0 
0 
0 
0 
0 
0 
0 
0 
0 
0 
0 
0 
0 
0 
0 
0 
0 
0 
0 
0 
0 
0 
0 
0 
0 
0 
0 
0 
0 
0 
0 
0 
0 
0 
0 
0 
0 
0 
0 
0 
0 
0 
0 
0 
0 
0 
0 
0 
0 
0 
0 
0 
0 
0 
0 
0 
0 
0 
0 
0 
0 
0 
0 
0 
0 
0 
0 
0 
0 
0 
0 
0 
0 
0 
0 
0 
0 
0 
0 
0 
0 
0 
0 
0 
0 
0 
0 
0 
0 
0 
0 
0 
0 
0 
0 
0 
0 
0 
0 
0 
0 
0 
0 
0 
0 
0 
0 
0 
0 
0 
0 
0 
0 
0 
0 
0 
0 
0 
0 
0 
0 
0 
0 
0 
0 
0 
0 
0 
0 
0 
0 
0 
0 
0 
0 
0 
0 
0 
0 
0 
0 
0 
0 
0 
0 
0 
0 
0 
0 
0 
0 
0 
0 
0 
0 
0 
0 
0 
0 
0 
0 
0 
0 
0 
0 
0 
0 
0 
0 
0 
0 
0 
0 
0 
0 
0 
0 
0 
0 
0 
0 
0 
0 
0 
0 
0 
0 
0 
SCALARS LOCAL_ID_L1-5 int 1
LOOKUP_TABLE default
0 
0 
0 
0 
0 
0 
0 
0 
0 
0 
0 
0 
0 
0 
0 
0 
0 
0 
0 
16 
0 
0 
0 
20 
0 
0 
0 
24 
0 
0 
0 
28 
0 
0 
0 
0 
0 
37 
0 
0 
0 
0 
0 
0 
0 
0 
0 
0 
0 
0 
49 
0 
0 
0 
0 
0 
53 
55 
56 
57 
0 
59 
60 
0 
0 
0 
0 
0 
0 
66 
0 
0 
0 
0 
0 
0 
0 
0 
0 
0 
0 
67 
84 
0 
0 
0 
85 
0 
86 
87 
0 
0 
89 
90 
0 
0 
0 
0 
0 
97 
0 
0 
0 
0 
0 
0 
0 
0 
0 
0 
0 
0 
109 
113 
0 
0 
0 
0 
0 
115 
116 
0 
0 
118 
119 
120 
0 
0 
0 
0 
0 
0 
0 
0 
0 
0 
0 
0 
0 
0 
0 
0 
0 
0 
0 
0 
0 
0 
0 
0 
0 
0 
0 
0 
0 
0 
151 
0 
0 
0 
0 
0 
0 
0 
0 
0 
0 
0 
152 
0 
0 
0 
165 
0 
170 
171 
172 
173 
0 
175 
176 
178 
179 
0 
0 
0 
183 
184 
0 
0 
0 
0 
0 
0 
0 
0 
197 
198 
199 
0 
0 
0 
0 
0 
0 
0 
0 
0 
0 
0 
0 
0 
0 
0 
0 
213 
214 
215 
0 
0 
0 
216 
0 
219 
221 
225 
226 
0 
0 
0 
0 
0 
0 
0 
0 
0 
0 
0 
236 
237 
0 
238 
239 
241 
244 
0 
245 
0 
0 
246 
247 
0 
0 
0 
0 
0 
248 
249 
251 
254 
255 
256 
259 
261 
0 
0 
0 
0 
0 
0 
0 
0 
265 
0 
0 
0 
0 
0 
0 
0 
0 
0 
0 
0 
0 
0 
0 
0 
0 
0 
0 
0 
0 
0 
0 
0 
0 
0 
0 
0 
0 
0 
0 
0 
0 
0 
0 
0 
0 
0 
0 
0 
0 
0 
0 
0 
0 
0 
0 
0 
0 
0 
0 
0 
0 
0 
0 
0 
0 
0 
0 
0 
0 
0 
0 
0 
0 
0 
0 
0 
0 
0 
0 
0 
0 
0 
SCALARS LOCAL_ID_L1-6 int 1
LOOKUP_TABLE default
0 
0 
0 
0 
0 
0 
0 
0 
0 
0 
0 
0 
0 
0 
0 
0 
0 
0 
0 
0 
0 
0 
0 
0 
0 
0 
0 
0 
0 
0 
0 
28 
0 
0 
0 
0 
0 
0 
0 
0 
0 
0 
0 
0 
0 
0 
0 
0 
0 
0 
0 
0 
0 
0 
0 
0 
0 
0 
0 
0 
0 
0 
0 
0 
0 
0 
0 
0 
0 
0 
0 
0 
0 
0 
0 
0 
0 
0 
0 
0 
0 
0 
0 
0 
0 
0 
0 
0 
0 
0 
0 
0 
0 
0 
0 
0 
0 
0 
0 
0 
0 
0 
0 
0 
0 
0 
0 
0 
0 
0 
0 
0 
0 
0 
0 
0 
0 
0 
0 
0 
0 
0 
0 
0 
0 
0 
0 
0 
0 
0 
0 
0 
0 
0 
0 
0 
0 
0 
0 
0 
0 
0 
0 
0 
0 
0 
0 
0 
0 
0 
0 
0 
0 
0 
0 
0 
0 
0 
0 
0 
0 
0 
0 
0 
0 
0 
0 
0 
0 
0 
0 
0 
0 
0 
0 
0 
0 
0 
0 
0 
0 
0 
0 
0 
0 
0 
0 
0 
0 
0 
0 
0 
0 
0 
0 
0 
0 
0 
0 
0 
0 
0 
0 
0 
0 
0 
0 
0 
0 
0 
0 
0 
0 
0 
0 
0 
0 
0 
0 
0 
0 
0 
0 
0 
0 
0 
0 
0 
0 
0 
0 
0 
0 
0 
0 
0 
0 
0 
0 
0 
0 
0 
0 
0 
0 
0 
0 
0 
0 
0 
0 
0 
0 
0 
0 
0 
0 
0 
0 
0 
0 
0 
0 
0 
0 
0 
0 
0 
0 
0 
0 
0 
0 
0 
0 
0 
0 
0 
0 
0 
0 
0 
0 
0 
0 
0 
0 
0 
0 
0 
0 
0 
0 
0 
0 
0 
0 
0 
0 
0 
0 
0 
0 
0 
0 
0 
0 
0 
0 
0 
0 
0 
0 
0 
0 
0 
0 
0 
0 
0 
0 
0 
0 
0 
0 
0 
0 
0 
0 
0 
0 
0 
0 
0 
0 
0 
0 
0 
0 
0 
0 
0 
0 
0 
0 
0 
SCALARS LOCAL_ID_L1-7 int 1
LOOKUP_TABLE default
0 
0 
0 
0 
0 
0 
0 
0 
0 
0 
0 
0 
0 
0 
0 
0 
0 
0 
0 
24 
0 
0 
0 
0 
0 
0 
0 
0 
0 
0 
0 
28 
0 
0 
0 
0 
0 
37 
0 
0 
0 
0 
0 
0 
0 
0 
0 
0 
0 
0 
49 
0 
0 
0 
0 
50 
54 
56 
57 
58 
0 
60 
61 
62 
0 
0 
0 
0 
0 
0 
0 
0 
0 
0 
0 
0 
0 
0 
0 
0 
0 
0 
0 
0 
0 
0 
0 
0 
0 
0 
0 
0 
0 
0 
0 
0 
0 
0 
0 
0 
0 
0 
0 
0 
0 
0 
0 
0 
0 
0 
0 
0 
0 
0 
0 
0 
0 
0 
0 
0 
0 
0 
0 
0 
0 
0 
0 
0 
0 
0 
0 
0 
0 
0 
0 
0 
0 
0 
0 
0 
0 
0 
0 
0 
0 
0 
0 
0 
0 
0 
0 
0 
0 
0 
0 
0 
0 
0 
0 
0 
0 
0 
0 
0 
0 
0 
0 
0 
0 
0 
0 
0 
0 
0 
0 
0 
0 
0 
0 
0 
0 
0 
0 
0 
0 
0 
0 
0 
0 
0 
0 
0 
0 
0 
0 
0 
0 
0 
0 
0 
0 
0 
0 
0 
0 
0 
0 
0 
0 
0 
0 
0 
0 
0 
0 
0 
0 
0 
0 
0 
0 
0 
0 
0 
0 
0 
0 
0 
0 
0 
0 
0 
0 
0 
0 
0 
0 
0 
0 
0 
0 
0 
0 
0 
0 
0 
0 
0 
0 
0 
0 
0 
0 
0 
0 
0 
0 
0 
0 
0 
0 
0 
0 
0 
0 
0 
0 
0 
0 
0 
0 
0 
0 
0 
0 
0 
0 
0 
0 
0 
0 
0 
0 
0 
0 
0 
0 
0 
0 
0 
0 
0 
0 
0 
0 
0 
0 
0 
0 
0 
0 
0 
0 
0 
0 
0 
0 
0 
0 
0 
0 
0 
0 
0 
0 
0 
0 
0 
0 
0 
0 
0 
0 
0 
0 
0 
0 
0 
0 
0 
0 
0 
0 
0 
0 
0 
0 
0 
0 
0 
0 
0 
0 
0 
0 
0 
CELL_DATA 1326
SCALARS GLOBAL_ID int 1
LOOKUP_TABLE default
8072 
8073 
8074 
8075 
8076 
8077 
8078 
8079 
8128 
8129 
8130 
8131 
8132 
8133 
8134 
8135 
8136 
8137 
8138 
8139 
8140 
8141 
8142 
8143 
8144 
8145 
8146 
8147 
8148 
8149 
8150 
8151 
8160 
8161 
8162 
8163 
8164 
8165 
8166 
8167 
8168 
8169 
8170 
8171 
8172 
8173 
8174 
8175 
8176 
8177 
8178 
8179 
8180 
8181 
8182 
8183 
8184 
8185 
8186 
8187 
8188 
8189 
8190 
8191 
8192 
8193 
8194 
8195 
8196 
8197 
8198 
8199 
8200 
8201 
8202 
8203 
8204 
8205 
8206 
8207 
8232 
8233 
8234 
8235 
8236 
8237 
8238 
8239 
8248 
8249 
8250 
8251 
8252 
8253 
8254 
8255 
8264 
8265 
8266 
8267 
8268 
8269 
8270 
8271 
8320 
8321 
8322 
8323 
8324 
8325 
8326 
8327 
8328 
8329 
8330 
8331 
8332 
8333 
8334 
8335 
8336 
8337 
8338 
8339 
8340 
8341 
8342 
8343 
8352 
8353 
8354 
8355 
8356 
8357 
8358 
8359 
8360 
8361 
8362 
8363 
8364 
8365 
8366 
8367 
8368 
8369 
8370 
8371 
8372 
8373 
8374 
8375 
8376 
8377 
8378 
8379 
8380 
8381 
8382 
8383 
8384 
8385 
8386 
8387 
8388 
8389 
8390 
8391 
8392 
8399 
8426 
8440 
8441 
8443 
8445 
8447 
8448 
8449 
8450 
8451 
8452 
8453 
8454 
8455 
8456 
8457 
8458 
8459 
8460 
8461 
8462 
8463 
8464 
8465 
8466 
8468 
8469 
8470 
8471 
8480 
8482 
8483 
8486 
8487 
8488 
8489 
8490 
8491 
8492 
8493 
8494 
8495 
8496 
8498 
8499 
8500 
8501 
8502 
8503 
8504 
8505 
8506 
8507 
8508 
8509 
8510 
8511 
8512 
8513 
8514 
8515 
8516 
8517 
8518 
8519 
8520 
8521 
8522 
8523 
8524 
8525 
8526 
8527 
8528 
8529 
8530 
8532 
8533 
8534 
8535 
8544 
8546 
8547 
8550 
8551 
8552 
8553 
8554 
8555 
8556 
8557 
8558 
8559 
8560 
8562 
8563 
8564 
8565 
8566 
8567 
8568 
8569 
8570 
8571 
8572 
8573 
8574 
8575 
8576 
8577 
8578 
8579 
8580 
8581 
8582 
8583 
8584 
8591 
8618 
8632 
8633 
8635 
8637 
8639 
8640 
8641 
8642 
8643 
8644 
8645 
8646 
8647 
8648 
8655 
8682 
8696 
8697 
8699 
8701 
8703 
8704 
8705 
8706 
8707 
8708 
8709 
8710 
8711 
8712 
8713 
8714 
8715 
8716 
8717 
8718 
8719 
8720 
8721 
8722 
8724 
8725 
8726 
8727 
8736 
8738 
8739 
8742 
8743 
8744 
8745 
8746 
8747 
8748 
8749 
8750 
8751 
8752 
8754 
8755 
8756 
8757 
8758 
8759 
8760 
8761 
8762 
8763 
8764 
8765 
8766 
8767 
8768 
8769 
8770 
8771 
8772 
8773 
8774 
8775 
8776 
8777 
8778 
8779 
8780 
8781 
8782 
8783 
8784 
8785 
8786 
8788 
8789 
8790 
8791 
8800 
8802 
8803 
8806 
8807 
8808 
8809 
8810 
8811 
8812 
8813 
8814 
8815 
8816 
8818 
8819 
8820 
8821 
8822 
8823 
8824 
8825 
8826 
8827 
8828 
8829 
8830 
8831 
8832 
8839 
8840 
8841 
8842 
8843 
8844 
8845 
8846 
8847 
8872 
8874 
8875 
8876 
8878 
8879 
8888 
8895 
8960 
8961 
8962 
8963 
8964 
8965 
8966 
8967 
8968 
8969 
8970 
8971 
8972 
8973 
8974 
8975 
8976 
8977 
8978 
8979 
8980 
8981 
8982 
8983 
8984 
8985 
8986 
8987 
8988 
8989 
8990 
8991 
8992 
8993 
8994 
8995 
8996 
8997 
8998 
8999 
9000 
9001 
9002 
9003 
9004 
9005 
9006 
9007 
9008 
9009 
9010 
9011 
9012 
9013 
9014 
9015 
9016 
9017 
9018 
9019 
9020 
9021 
9022 
9023 
9024 
9025 
9026 
9027 
9028 
9029 
9030 
9031 
9032 
9033 
9034 
9035 
9036 
9037 
9038 
9039 
9040 
9041 
9042 
9043 
9044 
9045 
9046 
9047 
9048 
9049 
9050 
9051 
9052 
9053 
9054 
9055 
9056 
9057 
9058 
9059 
9060 
9061 
9062 
9063 
9064 
9065 
9066 
9067 
9068 
9069 
9070 
9071 
9072 
9073 
9074 
9075 
9076 
9077 
9078 
9079 
9080 
9081 
9082 
9083 
9084 
9085 
9086 
9087 
9088 
9089 
9090 
9091 
9092 
9093 
9094 
9095 
9096 
9097 
9098 
9099 
9100 
9101 
9102 
9103 
9104 
9105 
9106 
9107 
9108 
9109 
9110 
9111 
9112 
9113 
9114 
9115 
9116 
9117 
9118 
9119 
9120 
9121 
9122 
9123 
9124 
9125 
9126 
9127 
9128 
9129 
9130 
9131 
9132 
9133 
9134 
9135 
9136 
9137 
9138 
9139 
9140 
9141 
9142 
9143 
9144 
9145 
9146 
9147 
9148 
9149 
9150 
9151 
9152 
9153 
9154 
9155 
9156 
9157 
9158 
9159 
9160 
9161 
9162 
9163 
9164 
9165 
9166 
9167 
9168 
9169 
9170 
9171 
9172 
9173 
9174 
9175 
9176 
9177 
9178 
9179 
9180 
9181 
9182 
9183 
9184 
9185 
9186 
9187 
9188 
9189 
9190 
9191 
9192 
9193 
9194 
9195 
9196 
9197 
9198 
9199 
9200 
9201 
9202 
9203 
9204 
9205 
9206 
9207 
9208 
9209 
9210 
9211 
9212 
9213 
9214 
9215 
9216 
9217 
9218 
9219 
9220 
9221 
9222 
9223 
9224 
9225 
9226 
9227 
9228 
9229 
9230 
9231 
9232 
9233 
9234 
9235 
9236 
9237 
9238 
9239 
9240 
9241 
9242 
9243 
9244 
9245 
9246 
9247 
9248 
9249 
9250 
9251 
9252 
9253 
9254 
9255 
9256 
9257 
9258 
9259 
9260 
9261 
9262 
9263 
9264 
9265 
9266 
9267 
9268 
9269 
9270 
9271 
9272 
9273 
9274 
9275 
9276 
9277 
9278 
9279 
9280 
9281 
9282 
9283 
9284 
9285 
9286 
9287 
9288 
9289 
9290 
9291 
9292 
9293 
9294 
9295 
9296 
9297 
9298 
9299 
9300 
9301 
9302 
9303 
9304 
9305 
9306 
9307 
9308 
9309 
9310 
9311 
9312 
9313 
9314 
9315 
9316 
9317 
9318 
9319 
9320 
9321 
9322 
9323 
9324 
9325 
9326 
9327 
9328 
9329 
9330 
9331 
9332 
9333 
9334 
9335 
9336 
9337 
9338 
9339 
9340 
9341 
9342 
9343 
9920 
9921 
9922 
9923 
9924 
9925 
9926 
9927 
9928 
9929 
9930 
9931 
9932 
9933 
9934 
9935 
9936 
9937 
9938 
9939 
9940 
9941 
9942 
9943 
9944 
9945 
9946 
9947 
9948 
9949 
9950 
9951 
9952 
9953 
9954 
9955 
9956 
9957 
9958 
9959 
9960 
9961 
9962 
9963 
9964 
9965 
9966 
9967 
9968 
9969 
9970 
9971 
9972 
9973 
9974 
9975 
9976 
9977 
9978 
9979 
9980 
9981 
9982 
9983 
9984 
9985 
9986 
9987 
9988 
9989 
9990 
9991 
9992 
9993 
9994 
9995 
9996 
9997 
9998 
9999 
10000 
10001 
10002 
10003 
10004 
10005 
10006 
10007 
10008 
10009 
10010 
10011 
10012 
10013 
10014 
10015 
10016 
10017 
10018 
10019 
10020 
10021 
10022 
10023 
10024 
10025 
10026 
10027 
10028 
10029 
10030 
10031 
10032 
10033 
10034 
10035 
10036 
10037 
10038 
10039 
10040 
10041 
10042 
10043 
10044 
10045 
10046 
10047 
10048 
10049 
10050 
10051 
10052 
10053 
10054 
10055 
10056 
10057 
10058 
10059 
10060 
10061 
10062 
10063 
10064 
10065 
10066 
10067 
10068 
10069 
10070 
10071 
10072 
10073 
10074 
10075 
10076 
10077 
10078 
10079 
10080 
10081 
10082 
10083 
10084 
10085 
10086 
10087 
10088 
10089 
10090 
10091 
10092 
10093 
10094 
10095 
10096 
10097 
10098 
10099 
10100 
10101 
10102 
10103 
10104 
10105 
10106 
10107 
10108 
10109 
10110 
10111 
10112 
10113 
10114 
10115 
10116 
10117 
10118 
10119 
10120 
10121 
10122 
10123 
10124 
10125 
10126 
10127 
10128 
10129 
10130 
10131 
10132 
10133 
10134 
10135 
10136 
10137 
10138 
10139 
10140 
10141 
10142 
10143 
10144 
10145 
10146 
10147 
10148 
10149 
10150 
10151 
10152 
10153 
10154 
10155 
10156 
10157 
10158 
10159 
10160 
10161 
10162 
10163 
10164 
10165 
10166 
10167 
10168 
10169 
10170 
10171 
10172 
10173 
10174 
10175 
10432 
10433 
10434 
10435 
10436 
10437 
10438 
10439 
10440 
10441 
10442 
10443 
10444 
10445 
10446 
10447 
10448 
10449 
10450 
10451 
10452 
10453 
10454 
10455 
10456 
10457 
10458 
10459 
10460 
10461 
10462 
10463 
10464 
10465 
10466 
10467 
10468 
10469 
10470 
10471 
10472 
10473 
10474 
10475 
10476 
10477 
10478 
10479 
10480 
10481 
10482 
10483 
10484 
10485 
10486 
10487 
10488 
10489 
10490 
10491 
10492 
10493 
10494 
10495 
10496 
10497 
10498 
10499 
10500 
10501 
10502 
10503 
10504 
10505 
10506 
10507 
10508 
10509 
10510 
10511 
10512 
10513 
10514 
10515 
10516 
10517 
10518 
10519 
10520 
10521 
10522 
10523 
10524 
10525 
10526 
10527 
10528 
10529 
10530 
10531 
10532 
10533 
10534 
10535 
10536 
10537 
10538 
10539 
10540 
10541 
10542 
10543 
10544 
10545 
10546 
10547 
10548 
10549 
10550 
10551 
10552 
10553 
10554 
10555 
10556 
10557 
10558 
10559 
10560 
10561 
10562 
10563 
10564 
10565 
10566 
10567 
10568 
10569 
10570 
10571 
10572 
10573 
10574 
10575 
10576 
10577 
10578 
10579 
10580 
10581 
10582 
10583 
10584 
10585 
10586 
10587 
10588 
10589 
10590 
10591 
10592 
10593 
10594 
10595 
10596 
10597 
10598 
10599 
10600 
10601 
10602 
10603 
10604 
10605 
10606 
10607 
10608 
10609 
10610 
10611 
10612 
10613 
10614 
10615 
10616 
10617 
10618 
10619 
10620 
10621 
10622 
10623 
10624 
10625 
10626 
10627 
10628 
10629 
10630 
10631 
10632 
10633 
10634 
10635 
10636 
10637 
10638 
10639 
10640 
10641 
10642 
10643 
10644 
10645 
10646 
10647 
10648 
10649 
10650 
10651 
10652 
10653 
10654 
10655 
10656 
10657 
10658 
10659 
10660 
10661 
10662 
10663 
10664 
10665 
10666 
10667 
10668 
10669 
10670 
10671 
10672 
10673 
10674 
10675 
10676 
10677 
10678 
10679 
10680 
10681 
10682 
10683 
10684 
10685 
10686 
10687 
VECTORS Permeability double
0.5426367187 0.1875 0.59375 
0.3979335937 0.25 0.53125 
0.5426367187 0.3125 0.59375 