# vtk DataFile Version 3.0
MOAB 5.0.1
ASCII
DATASET UNSTRUCTURED_GRID
POINTS 377 double
1 0 0
0.4669833762 0 0.2252024921
0.5726608283 0 0.4243802425
1 0.3103373592 0.5019775802
1 0 0.375
0.5 0 0
1 0.5330729601 0.4667813856
1 0.125 0
0.4979426925 0.1031211474 0.1409461399
0.9407786396 0.498275855 0.4357478268
0.6656074406 0.213181646 0.3921247187
0.4339667523 0 0.4504049841
0.4997558594 0.1247558594 0
1 0.4957917825 0.5040592833
0.5988001472 0.1755913792 0.3676165267
1 0 0.25
1 0 0.125
0.875 0 0
0.75 0 0
0.625 0 0
0.4824630343 0.05156057369 0.183074316
0.8684117571 0 0.3706096193
0.8747789096 0 0.4563255538
0.6420078662 0 0.4113678717
0.6556856729 0 0.4805414618
0.7240892092 0 0.4447873698
0.9373894548 0 0.4156627769
0.8026176356 0 0.430914429
0.7368235142 0 0.4912192387
0.8404359801 0.273093703 0.3999773773
0.8609966297 0.3496456376 0.4209847715
0.8815572792 0.4261975723 0.4419921656
0.786425357 0.2619328079 0.4083051441
0.7324147339 0.2507719128 0.4166329108
0.5033137903 0 0.4373926133
0.4504750642 0 0.3378037381
0.4989713462 0.05156057369 0.07047306994
0.8749389648 0.1249389648 0
0.6248168945 0.1248168945 0
0.7498779297 0.1248779297 0
0.5857304877 0.08779568959 0.3959983846
0.6395978676 0.0362351159 0.4251141899
0.652667527 0.1240308055 0.396732332
0.7170648217 0.1978561882 0.4349868422
0.958878701 0.3016835948 0.5029999068
0.9794393505 0.2337854246 0.4809701861
0.8866341178 0.1962227472 0.4841015912
0.9383180514 0.2251316601 0.4819925127
0.8326234947 0.1850618521 0.492429358
0.7786128716 0.173900957 0.5007571247
1 0.22701824 0.1166953464
1 0.3290364801 0.2333906928
1 0.4310547201 0.3500860392
1 0.4547874641 0.5450146951
1 0.4137831457 0.585970107
0.4834916881 0 0.112601246
1 0.2068915728 0.4179850535
1 0.1034457864 0.3339925267
1 0.09319470681 0.4379813797
0.6592020113 0.1699338061 0.348220721
0.5573159027 0.149024148 0.1920234041
0.6025387259 0.1710438619 0.254928694
0.9278387261 0 0.09958887521
0.9310223023 0 0.2049468424
0.8556774521 0 0.1991777504
0.8620446046 0 0.2848936849
0.9342058785 0 0.3103048097
0.7835161782 0 0.2987666256
0.7930669069 0 0.3648405273
0.7113549042 0 0.3983555008
0.5337353427 0 0.32804446
0.6169956212 0 0.3182851819
0.6613304141 0 0.2121901212
0.5641568951 0 0.2186963066
0.7002558997 0 0.3085259037
0.7585039331 0 0.2056839358
0.8167519666 0 0.1028419679
0.7056652071 0 0.1060950606
0.5945784476 0 0.1093481533
1 0.1239479456 0.1260148208
1 0.113696866 0.2300036738
1 0.2478958912 0.2520296416
1 0.227393732 0.3350073476
1 0.3718438369 0.3780444625
1 0.3410905981 0.4400110213
0.9794393505 0.1508417974 0.4389999534
0.9794393505 0.04739601098 0.3550074267
0.958878701 0.2187399676 0.4610296742
0.958878701 0.09479202196 0.3350148534
0.9383180514 0.1421880329 0.44002228
0.9617947687 0.01967211787 0.3557500268
0.9235895373 0.03934423574 0.4615000535
0.8960006472 0.01967211787 0.4160548364
0.8238393733 0.01967211787 0.3906437116
0.7920012944 0.03934423574 0.4571096729
0.8641625684 0.03934423574 0.4825207977
0.885384306 0.0590163536 0.4422500803
0.8328244281 0.1345163553 0.4770938884
0.8691904694 0.1179533573 0.4695087218
0.8504690099 0.1622402484 0.4763512884
0.904479633 0.1734011435 0.4680235216
0.8868350512 0.1456772504 0.4687661217
0.9001128201 0.1618601508 0.4207723068
0.6826182074 0.06828731437 0.4701779905
0.7065349069 0.07247023181 0.4258481372
0.7041249082 0.1087053477 0.4395944554
0.7017149095 0.1449404636 0.4533407736
0.6502575284 0.1602659214 0.4104786501
0.7380809508 0.1283774656 0.445755607
0.7920915739 0.1395383607 0.4374278403
0.7557255326 0.1561013587 0.4450130069
0.7404909495 0.09214234967 0.4320092888
0.7580452518 0.01967211787 0.4509485213
0.7216792105 0.0362351159 0.4585336879
0.685028206 0.03205219846 0.4564316723
0.825957337 0.0590163536 0.4632708244
0.7964583868 0.1510793534 0.4846790551
0.8515458876 0.09022946418 0.4702513219
0.9030288878 0.08674024671 0.4415074802
0.7556352531 0.05590723377 0.4646948395
0.7895912958 0.07557935164 0.4708559911
0.8151798463 0.1067924622 0.4778364885
0.9206734696 0.1144641398 0.4407648801
0.7744469921 0.1118144675 0.4381704403
0.9412341191 0.06706812885 0.4607574535
0.9794393505 0.337231211 0.5649627128
0.9407786396 0.419990359 0.5139811363
0.7710754448 0.2090170833 0.4266590755
0.9407786396 0.4609946774 0.4730257244
0.847973407 0.2379775767 0.4740754265
0.879096691 0.2313388734 0.410003542
0.8996573405 0.3078908081 0.4310109362
0.9202179901 0.3844427427 0.4520183303
0.9202179901 0.3434384243 0.4929737421
0.8112123409 0.0712844904 0.01830119094
0.6862123409 0.0712844904 0.01830119094
0.9284886684 0.1188790088 0.125468612
0.8954671386 0.2111025783 0.1774282768
0.9339569404 0.1844471388 0.1039193295
0.9079280189 0.1662750198 0.2304760387
0.8873673693 0.2136710308 0.3354834654
0.9133962909 0.2318431498 0.2089267561
0.8928356414 0.2792391608 0.3139341828
0.9669784702 0.09222356942 0.05195966473
0.869438217 0.1929304592 0.303984986
0.8899988665 0.1455344483 0.1989775593
0.8515090647 0.1721898877 0.2724865066
0.8432383864 0.1898577303 0.3470065833
0.9669784702 0.4640674063 0.4300041272
0.8253092341 0.1691171588 0.3155081039
0.782822334 0.1354489954 0.3114303522
0.7892277633 0.1786968352 0.35533435
0.8189038047 0.1258693189 0.2716041061
0.8592327372 0.1245953692 0.1653190855
0.8573936066 0.09921387945 0.1980951588
0.5583445565 0.0974635743 0.1215503342
0.6539961071 0.1557184042 0.2977908174
0.8611675387 0.2105983019 0.3785050627
0.8110902706 0.1961624201 0.01830119094
0.7455855512 0.117187491 0.06937845519
0.9669784702 0.216171515 0.1779744855
0.9339569404 0.3083950845 0.2299341503
0.897722539 0.09793992982 0.09181013825
0.9077571098 0.4292703012 0.3989705683
0.8871964603 0.3527183665 0.3779631742
0.8724246818 0.1425689808 0.03660238189
0.9362123409 0.0712844904 0.01830119094
0.7776164298 0.1212335934 0.2610004487
0.7467408632 0.1450286718 0.3512565983
0.6843732103 0.04590300062 0.05107726424
0.5593732103 0.04590300062 0.05107726424
0.9669784702 0.3401194607 0.3039893064
0.8666358108 0.2761664319 0.3569557801
0.8207429354 0.1512508086 0.2388280328
0.7143979711 0.1500608311 0.2783950117
0.7091920669 0.1358454292 0.2279651082
0.6487902029 0.1415030022 0.2473609139
0.7437464206 0.09180600124 0.1021545285
0.6187464206 0.09180600124 0.1021545285
0.6639692437 0.1138257152 0.1650598183
0.9464178207 0.3875154716 0.408996733
0.5612123409 0.0712844904 0.01830119094
0.8958834084 0.07255844003 0.1245862115
0.8687464206 0.09180600124 0.1021545285
0.7889692437 0.1138257152 0.1650598183
0.8071569156 0.1994374068 0.3868328294
0.7531462925 0.1882765117 0.3951605961
0.7260093046 0.2075240729 0.372728913
0.8705855512 0.117187491 0.06937845519
0.7504794419 0.1404811546 0.2385687656
0.9133962909 0.3557910954 0.334941577
0.741534959 0.1308132699 0.3008266948
0.7196038753 0.164276233 0.3288249153
0.6035673797 0.1194832883 0.184455624
0.5342731066 0.1031211474 0.3531362611
0.6012101459 0.1393562633 0.3538702085
0.4659547224 0.05156057369 0.295675562
0.4494464105 0.05156057369 0.408276808
0.5187934484 0.05156057369 0.3952644372
0.593594243 0.1613759772 0.3171866231
0.5431655156 0.1251408613 0.2038514297
0.5960042417 0.1251408613 0.3034403049
0.5883883388 0.1471605753 0.2667567196
0.4814343805 0.1031211474 0.2535473859
0.6036201446 0.1031211474 0.3401238903
0.5266572037 0.1251408613 0.3164526758
0.4649260686 0.1031211474 0.3661486319
0.4956978874 0.02201971396 0.4007090279
0.5574290225 0.04403942791 0.3510130718
0.5122061993 0.02201971396 0.2881077819
0.5111775455 0.07358028764 0.3585808518
0.6191601576 0.06605914187 0.3013171156
0.5729086806 0.0956000016 0.3088848957
0.5739373344 0.04403942791 0.2384118257
0.6808912927 0.08807885583 0.2516211594
0.6356684695 0.06605914187 0.1887158696
0.6346398157 0.1176197156 0.2591889395
0.5904456463 0.04403942791 0.1258105797
0.5894169926 0.0956000016 0.1962836497
0.5452228232 0.02201971396 0.06290528986
0.5441941694 0.07358028764 0.1333783598
0.5287145112 0.02201971396 0.1755065359
0.5276858575 0.07358028764 0.2459796058
0.9177574019 0.1895840439 0.4200297067
0.9794393505 0.4192398479 0.4830518891
0.958878701 0.3426879132 0.462044495
0.9794393505 0.3782355294 0.524007301
0.9383180514 0.2661359786 0.4410371009
0.8108130334 0.09525146951 0.4305852737
0.8471790747 0.07868847147 0.4230001071
0.7089449055 0.0362351159 0.412101819
0.7429009482 0.05590723377 0.4182629706
0.7426163776 0.06289055532 0.3860218911
0.7450263763 0.02665543941 0.3722755729
0.7453109468 0.01967211787 0.4045166524
0.7786978484 0.05331087883 0.346195645
0.7789824189 0.04632755728 0.3784367245
0.7792669894 0.03934423574 0.410677804
0.740206379 0.09912567122 0.3997682093
0.7377963803 0.1353607871 0.4135145275
0.7741624216 0.1187977891 0.4059293609
0.7738778511 0.1257811106 0.3736882814
0.8105284629 0.1022347911 0.3983441942
0.7768569908 0.07557935164 0.4244241221
0.8132230321 0.0590163536 0.4168389555
0.8468945042 0.08567179302 0.3907590276
0.8129384615 0.06599967515 0.384597876
0.8466099336 0.09265511457 0.3585179481
0.8123693205 0.07996631824 0.3201157171
0.812653891 0.0729829967 0.3523567966
0.7762878497 0.08954599473 0.3599419632
0.8460407926 0.1066217577 0.2940357892
0.8099593218 0.1162014341 0.3338620353
0.8463253631 0.09963843611 0.3262768687
0.8102438924 0.1092181126 0.3661031148
0.7765724203 0.08256267319 0.3921830427
0.6702228232 0.02201971396 0.06290528986
0.6045960335 0.06792271458 0.1139825541
0.6498188566 0.08994242853 0.176887844
0.7154456463 0.04403942791 0.1258105797
0.7606684695 0.06605914187 0.1887158696
0.6950416798 0.1119621425 0.2397931338
0.8404456463 0.04403942791 0.1258105797
0.7748188566 0.08994242853 0.176887844
0.9202228232 0.02201971396 0.06290528986
0.8545960335 0.06792271458 0.1139825541
0.7952228232 0.02201971396 0.06290528986
0.9343732103 0.04590300062 0.05107726424
0.8093732103 0.04590300062 0.05107726424
0.7295960335 0.06792271458 0.1139825541
0.8097361557 0.1672622538 0.4366852402
0.8637467788 0.1784231488 0.4283574735
0.8250860679 0.2201779784 0.4183313088
0.8284576152 0.1229753626 0.4298426736
0.8648236565 0.1064123646 0.422257507
0.864539086 0.1133956861 0.3900164275
0.8824682383 0.1341362577 0.4215149069
0.7918070034 0.1465216822 0.4051867608
0.8458176265 0.1576825773 0.3968589941
0.846102197 0.1506992557 0.4291000735
0.8998282496 0.1688434724 0.3885312273
0.8821836678 0.1411195792 0.3892738274
0.8818990973 0.1481029008 0.357032748
0.8642545155 0.1203790077 0.3577753481
0.8639699449 0.1273623292 0.3255342686
0.8278884742 0.1369420057 0.3653605147
0.8281730447 0.1299586842 0.3976015942
0.5650449254 0.02201971396 0.3876966571
0.5881404864 0.05156057369 0.3822520664
0.6343919634 0.02201971396 0.3746842863
0.7037390013 0.02201971396 0.3616719155
0.6574875244 0.05156057369 0.3692396956
0.6961230984 0.04403942791 0.3249883301
0.6498716215 0.07358028764 0.3325561102
0.6885071956 0.06605914187 0.2883047448
0.6422557186 0.0956000016 0.2958725249
0.6267760605 0.04403942791 0.338000701
0.5805245835 0.07358028764 0.345568481
0.6550775257 0.08779568959 0.3829860138
0.7013290027 0.05825482986 0.3754182337
0.698919004 0.09448994576 0.3891645519
0.6965090053 0.1307250617 0.4029108701
0.6913031011 0.1165096597 0.3524809665
0.6450516242 0.1460505194 0.3600487466
0.6860971969 0.1022942578 0.302051063
0.6398457199 0.1318351175 0.3096188431
0.6937130998 0.08027454382 0.3387346483
0.6474616228 0.1098154035 0.3463024284
0.7106593924 0.1546083483 0.3910828444
0.700247584 0.1261775444 0.2902230374
0.7054534882 0.1403929464 0.3406529409
0.9615101982 0.02665543941 0.0735089473
0.9230203963 0.05331087883 0.1470178946
0.8817330213 0.04867515337 0.1364142372
0.7363290548 0.1165978679 0.2503967913
0.7221786677 0.09271458129 0.2622248169
0.8019558445 0.07069486733 0.199319527
0.7634660427 0.09735030674 0.2728284743
0.8845305945 0.07996631824 0.2205268419
0.8432432195 0.07533059279 0.2099231845
0.8047534176 0.1019860322 0.2834321318
0.8161062316 0.09457815399 0.1874915014
0.7759002753 0.02201971396 0.2620830403
0.8171876503 0.02665543941 0.2726866977
0.7374104734 0.04867515337 0.3355919876
0.8893489242 0.02665543941 0.1730978225
0.8480615492 0.02201971396 0.1624941651
0.7682843724 0.04403942791 0.2253994549
0.7297945705 0.07069486733 0.2989084022
0.7710819455 0.07533059279 0.3095120597
0.8508591224 0.05331087883 0.2466067698
0.8095717474 0.04867515337 0.2360031124
0.8174722208 0.01967211787 0.3049277772
0.8514282634 0.03934423574 0.3110889287
0.885384306 0.0590163536 0.3172500803
0.9235895373 0.03934423574 0.2115000535
0.8850997355 0.06599967515 0.2850090008
0.9617947687 0.01967211787 0.1057500268
0.9233049668 0.04632755728 0.1792589741
0.8896334947 0.01967211787 0.205338902
0.884815165 0.0729829967 0.2527679214
0.8511436929 0.04632755728 0.2788478493
0.7273845719 0.1069299832 0.3126547204
0.7686719469 0.1115657087 0.3232583779
0.7325904761 0.1211453852 0.363084624
0.7350004748 0.08491026927 0.3493383058
0.9030288878 0.08674024671 0.3165074802
0.9235895373 0.03934423574 0.3365000535
0.9617947687 0.01967211787 0.2307500268
0.9412341191 0.06706812885 0.2107574535
0.9794393505 0.04739601098 0.1050074267
0.958878701 0.09479202196 0.2100148534
0.9794393505 0.04739601098 0.2300074267
0.9383180514 0.1421880329 0.31502228
0.9206734696 0.1144641398 0.3157648801
0.9412341191 0.06706812885 0.3357574535
0.9203888991 0.1214474614 0.2835238007
0.9409495486 0.07405145039 0.178516374
0.9024597468 0.1007068898 0.2520253213
0.9027443173 0.09372356826 0.2842664008
0.9258571712 0.310963537 0.3879893389
0.9052965216 0.2344116024 0.3669819448
0.9794393505 0.2952919022 0.3570370683
0.958878701 0.2187399676 0.3360296742
0.9258571712 0.1870155914 0.2619745181
0.9464178207 0.1396195804 0.1569670914
0.9794393505 0.1713439566 0.2310222475
0.9464178207 0.263567526 0.2829819122
0.8514282634 0.03934423574 0.4360889287
0.8960006472 0.01967211787 0.2910548364
0.6432843724 0.04403942791 0.2253994549
0.6787267563 0.02201971396 0.2685892257
0.6258880302 0.02201971396 0.1690003505
0.7508880302 0.02201971396 0.1690003505
0.6093797183 0.02201971396 0.2816015965
0.9794393505 0.274789743 0.4400147742
0.9794393505 0.1508417974 0.3139999534
CELLS 0 0
CELL_TYPES 0
POINT_DATA 377
SCALARS GLOBAL_ID int 1
LOOKUP_TABLE default
1 
11 
21 
38 
48 
51 
67 
68 
71 
75 
76 
78 
84 
88 
91 
113 
114 
115 
116 
117 
281 
284 
285 
286 
287 
288 
289 
290 
291 
304 
305 
306 
307 
308 
320 
321 
340 
341 
342 
343 
375 
376 
377 
402 
403 
404 
405 
406 
407 
408 
413 
414 
415 
452 
453 
454 
498 
499 
500 
503 
504 
505 
701 
702 
703 
704 
705 
706 
707 
708 
709 
710 
711 
712 
713 
714 
715 
716 
717 
750 
751 
752 
753 
754 
755 
886 
887 
888 
889 
890 
891 
892 
893 
894 
895 
896 
897 
898 
899 
900 
901 
902 
903 
904 
905 
906 
907 
908 
909 
910 
911 
912 
913 
914 
915 
916 
917 
918 
919 
920 
921 
922 
923 
924 
925 
926 
927 
928 
929 
930 
931 
932 
933 
934 
935 
936 
937 
938 
939 
940 
941 
942 
943 
944 
945 
946 
947 
948 
949 
950 
951 
952 
953 
954 
955 
956 
957 
958 
959 
960 
961 
962 
963 
964 
965 
966 
967 
968 
969 
970 
971 
972 
973 
974 
975 
976 
977 
978 
979 
980 
981 
982 
983 
984 
985 
986 
987 
988 
989 
990 
991 
992 
993 
994 
1840 
1841 
1842 
1843 
1844 
1845 
1846 
1847 
1848 
1849 
1850 
1851 
1852 
2068 
2069 
2070 
2071 
2072 
2073 
2074 
2075 
2076 
2077 
2078 
2079 
2080 
2081 
2082 
2083 
2084 
2085 
2086 
2087 
2088 
2089 
2090 
2091 
2092 
2093 
2094 
2095 
2096 
2097 
2098 
2099 
2100 
2101 
2102 
2103 
2104 
2105 
2106 
2107 
2108 
2109 
2110 
2111 
2112 
2113 
2114 
2115 
2116 
2117 
2118 
2119 
2120 
2121 
2122 
2123 
2124 
2125 
2126 
2127 
2128 
2129 
2130 
2131 
2132 
2133 
2134 
2135 
2136 
2137 
2138 
2139 
2140 
2141 
2142 
2143 
2144 
2145 
2146 
2147 
2148 
2149 
2150 
2151 
2152 
2153 
2154 
2155 
2156 
2157 
2158 
2159 
2160 
2161 
2162 
2163 
2164 
2165 
2166 
2167 
2168 
2169 
2170 
2171 
2172 
2173 
2174 
2175 
2176 
2177 
2178 
2179 
2180 
2181 
2182 
2183 
2184 
2185 
2186 
2187 
2188 
2189 
2190 
2191 
2192 
2193 
2194 
2195 
2196 
2197 
2198 
2199 
2200 
2201 
2202 
2203 
2204 
2205 
2206 
2207 
2208 
2209 
2210 
2211 
2212 
2213 
2214 
2215 
2216 
2217 
2218 
2219 
2220 
2221 
2222 
2223 
2224 
2225 
2226 
2227 
2228 
2229 
2230 
2231 
2232 
2233 
2234 
2235 
2236 
2237 
SCALARS LOCAL_ID_L1 int 1
LOOKUP_TABLE default
0 
0 
3 
4 
6 
5 
11 
4 
5 
14 
15 
18 
8 
18 
11 
15 
16 
17 
18 
19 
74 
18 
19 
20 
21 
22 
23 
24 
25 
37 
38 
39 
40 
41 
77 
78 
26 
27 
28 
29 
80 
81 
82 
53 
54 
55 
56 
57 
58 
59 
34 
35 
36 
73 
74 
55 
70 
71 
72 
48 
49 
50 
62 
63 
64 
65 
66 
67 
68 
69 
70 
71 
72 
73 
74 
75 
76 
77 
78 
79 
80 
81 
82 
83 
84 
154 
155 
156 
157 
158 
159 
160 
161 
162 
163 
164 
165 
166 
167 
168 
169 
170 
171 
172 
173 
174 
175 
176 
177 
178 
179 
180 
181 
182 
183 
184 
185 
186 
187 
188 
189 
190 
191 
192 
193 
147 
148 
149 
150 
151 
152 
153 
154 
155 
75 
76 
77 
78 
79 
80 
81 
82 
83 
84 
85 
86 
87 
88 
89 
90 
91 
92 
93 
94 
95 
96 
97 
98 
99 
100 
101 
102 
103 
104 
105 
106 
107 
108 
109 
110 
111 
112 
113 
114 
115 
116 
117 
118 
119 
120 
121 
122 
123 
124 
125 
126 
127 
128 
129 
130 
131 
132 
133 
134 
238 
239 
240 
241 
242 
243 
244 
245 
246 
247 
248 
249 
250 
207 
208 
209 
210 
211 
212 
213 
214 
215 
216 
217 
218 
219 
220 
221 
222 
223 
224 
225 
226 
227 
228 
229 
230 
231 
232 
233 
234 
235 
236 
237 
238 
239 
240 
241 
242 
243 
244 
245 
246 
247 
248 
249 
250 
251 
252 
253 
254 
255 
256 
257 
258 
259 
260 
261 
262 
263 
264 
265 
266 
267 
268 
269 
270 
271 
272 
273 
274 
275 
276 
277 
278 
279 
280 
281 
282 
283 
284 
285 
286 
287 
288 
289 
290 
291 
292 
293 
294 
295 
296 
297 
298 
299 
300 
301 
302 
303 
304 
305 
306 
307 
308 
309 
310 
311 
312 
313 
314 
315 
316 
317 
318 
319 
320 
321 
322 
323 
324 
325 
326 
327 
328 
329 
330 
331 
332 
333 
334 
335 
336 
337 
338 
339 
340 
341 
342 
343 
344 
345 
346 
347 
348 
349 
350 
351 
352 
353 
354 
355 
356 
357 
358 
359 
360 
361 
362 
363 
364 
365 
366 
367 
368 
369 
370 
371 
372 
373 
374 
375 
376 
