# vtk DataFile Version 3.0
MOAB 5.0.1
ASCII
DATASET UNSTRUCTURED_GRID
POINTS 66 double
0 0 0
1 0 0
0 1 0
1 1 0
0 0 1
1 0 1
0 1 1
1 1 1
0.5 0 1
1 0 0.5
0.5 0 0
0 0 0.5
0 0.5 1
0.5 1 1
1 1 0.5
0.5 1 0
0 1 0.5
0 0.5 0
1 0.5 1
1 0.5 0
0.5532675983 0.4352635691 1
0.4199347618 0.7645107395 1
0.6066264751 0.7127492974 1
0 0.5532657569 0.4352625089
0 0.4199333007 0.7645098983
0 0.6066250341 0.7127484678
0.4467324017 1 0.5647364309
0.5800652382 1 0.2354892605
0.3933735249 1 0.2872507026
0.4990234375 0.4990234375 0
0.4467324017 0 0.5647364309
0.5800652382 0 0.2354892605
0.3933735249 0 0.2872507026
1 0.4999994886 0.4999994886
0.2096445669 0.2332257716 0.8374998037
0.7964643796 0.2329222601 0.9259420613
0.1492398902 0.8005963002 0.8809379654
0.6133354839 0.8919887779 0.9052217701
0.8275954971 0.6432462211 0.8519680552
0.2284176926 0.6208272165 0.7880045547
0.1619645126 0.2437493443 0.2240145813
0.1204041595 0.8206649207 0.2425796558
0.06630543184 0.2153302855 0.8175383188
0.1027575109 0.6573988343 0.8831667047
0.134917978 0.8461060039 0.6525355517
0.1602553853 0.3074160489 0.6335925002
0.4229850641 0.8843002121 0.1069272373
0.1851094746 0.9433876143 0.3426095453
0.7930967323 0.9220611936 0.1651813472
0.2212895595 0.8455697726 0.7855247025
0.7390204073 0.8814747738 0.8432012262
0.7123256854 0.8100323211 0.3557934901
0.26293199 0.2196643411 0.09347027592
0.7543557497 0.2002157369 0.1687287926
0.2536238777 0.8014310353 0.1079635219
0.7245567987 0.7937772295 0.1659915876
0.3790181263 0.1206094008 0.10697931
0.1726748579 0.1422254552 0.338184673
0.7960467513 0.07762172668 0.1693295043
0.1482521512 0.158991069 0.7686461007
0.7614168267 0.2017702177 0.8002648032
0.6985663092 0.1897291983 0.3062951797
0.8405475301 0.1589334729 0.2374457893
0.8397900033 0.8381105795 0.2340770872
0.8596897768 0.3253569731 0.829346217
0.8088247139 0.7946788985 0.7368913222
CELLS 200 1032
4 53 33 61 62
4 55 63 51 33
4 26 29 51 33
4 30 29 33 61
4 29 26 23 33
4 26 65 50 22
4 25 23 39 45
4 60 20 64 33
4 29 55 51 33
4 33 29 53 61
4 26 29 28 51
4 32 29 30 61
4 20 35 60 64
4 26 39 20 22
4 26 65 14 50
4 45 59 30 34
4 29 26 28 23
4 53 19 33 62
4 63 55 19 33
4 55 29 51 27
4 30 20 60 33
4 60 9 33 64
4 30 45 34 20
4 54 29 28 23
4 45 24 34 20
4 41 54 28 23
4 9 30 33 61
4 39 24 45 20
4 25 39 24 45
4 29 28 51 27
4 31 62 58 53
4 47 41 28 23
4 63 27 48 55
4 29 19 33 53
4 19 29 33 55
4 30 9 33 60
4 31 62 53 61
4 27 63 51 55
4 64 20 38 33
4 49 26 21 39
4 62 31 58 9
4 27 63 48 14
4 26 47 28 23
4 33 14 63 51
4 33 9 61 62
4 26 21 39 22
4 23 11 40 57
4 28 2 46 54
4 7 22 37 50
4 17 29 54 23
4 26 47 23 44
4 20 18 35 64
4 18 33 38 65
4 18 33 64 38
4 17 54 41 23
4 23 11 57 45
4 25 6 43 36
4 59 30 34 8
4 35 8 20 60
4 20 18 64 38
4 46 29 54 15
4 29 56 52 10
4 12 20 24 39
4 30 11 59 45
4 52 56 0 10
4 46 54 2 15
4 12 20 34 24
4 37 7 50 13
4 30 34 8 20
4 8 30 20 60
4 30 11 45 57
4 37 26 50 22
4 21 12 43 39
4 36 6 43 12
4 21 12 36 43
4 36 49 6 13
4 10 53 58 1
4 3 48 15 55
4 31 62 61 9
4 27 63 14 51
4 25 39 43 24
4 54 17 41 2
4 35 18 5 64
4 19 53 1 62
4 3 63 55 19
4 16 23 41 47
4 26 16 44 49
4 8 35 5 60
4 4 59 34 8
4 40 52 0 17
4 26 37 21 22
4 12 4 42 34
4 18 7 65 38
4 2 41 47 16
4 16 44 49 6
4 57 40 52 0
4 5 60 64 9
4 50 7 65 14
4 58 9 1 62
4 14 48 3 63
4 11 4 59 42
4 26 37 50 13
4 16 23 47 44
4 26 16 47 44
4 40 57 11 0
4 35 5 60 64
4 39 43 24 12
4 37 26 21 13
4 26 49 21 13
4 53 58 1 62
4 48 3 63 55
4 4 59 42 34
4 10 53 31 58
4 48 15 55 27
4 24 12 42 34
4 49 36 21 13
4 33 26 14 51
4 33 14 26 65
4 38 65 20 22
4 38 20 65 33
4 26 20 65 22
4 26 65 20 33
4 28 41 2 54
4 28 2 41 47
4 49 44 39 25
4 49 39 44 26
4 23 39 44 25
4 23 44 39 26
4 65 22 7 50
4 7 22 65 38
4 11 42 45 24
4 11 45 42 59
4 34 45 42 24
4 34 42 45 59
4 40 17 29 52
4 29 17 40 23
4 40 29 57 52
4 57 29 40 23
4 49 25 6 44
4 49 6 25 36
4 43 39 36 21
4 43 36 39 25
4 49 36 39 21
4 49 39 36 25
4 28 46 29 54
4 28 29 46 27
4 29 27 15 46
4 29 15 27 55
4 45 39 26 23
4 45 26 39 20
4 33 45 26 23
4 33 26 45 20
4 30 33 45 20
4 29 30 57 32
4 33 45 29 30
4 33 29 45 23
4 57 29 45 30
4 57 45 29 23
4 56 29 57 32
4 57 29 56 52
4 57 0 56 32
4 56 0 57 52
4 56 53 10 29
4 10 53 56 31
4 32 61 53 29
4 53 61 32 31
4 56 32 53 29
4 53 32 56 31
5 8 4 12 20 34
5 20 18 5 8 35
5 13 21 12 6 36
5 7 22 21 13 37
5 20 22 7 18 38
5 12 21 22 20 39
5 23 11 0 17 40
5 23 17 2 16 41
5 12 4 11 24 42
5 6 12 24 25 43
5 23 16 6 25 44
5 11 23 25 24 45
5 2 15 27 28 46
5 2 28 26 16 47
5 15 3 14 27 48
5 6 16 26 13 49
5 13 26 14 7 50
5 14 26 28 27 51
5 0 10 29 17 52
5 19 29 10 1 53
5 17 29 15 2 54
5 15 29 19 3 55
5 31 10 0 32 56
5 30 32 0 11 57
5 9 1 10 31 58
5 30 11 4 8 59
5 9 30 8 5 60
5 32 30 9 31 61
5 1 9 33 19 62
5 33 14 3 19 63
5 5 18 33 9 64
5 14 33 18 7 65
CELL_TYPES 200
10
10
10
10
10
10
10
10
10
10
10
10
10
10
10
10
10
10
10
10
10
10
10
10
10
10
10
10
10
10
10
10
10
10
10
10
10
10
10
10
10
10
10
10
10
10
10
10
10
10
10
10
10
10
10
10
10
10
10
10
10
10
10
10
10
10
10
10
10
10
10
10
10
10
10
10
10
10
10
10
10
10
10
10
10
10
10
10
10
10
10
10
10
10
10
10
10
10
10
10
10
10
10
10
10
10
10
10
10
10
10
10
10
10
10
10
10
10
10
10
10
10
10
10
10
10
10
10
10
10
10
10
10
10
10
10
10
10
10
10
10
10
10
10
10
10
10
10
10
10
10
10
10
10
10
10
10
10
10
10
10
10
10
10
10
10
10
10
14
14
14
14
14
14
14
14
14
14
14
14
14
14
14
14
14
14
14
14
14
14
14
14
14
14
14
14
14
14
14
14
POINT_DATA 66
SCALARS GLOBAL_ID int 1
LOOKUP_TABLE default
0 
1 
2 
3 
4 
5 
6 
7 
8 
9 
10 
11 
12 
13 
14 
15 
16 
17 
18 
19 
20 
21 
22 
23 
24 
25 
26 
27 
28 
29 
30 
31 
32 
33 
34 
35 
36 
37 
38 
39 
40 
41 
42 
43 
44 
45 
46 
47 
48 
49 
50 
51 
52 
53 
54 
55 
56 
57 
58 
59 
60 
61 
62 
63 
64 
65 
SCALARS FLAGS int 1
LOOKUP_TABLE default
101 
101 
101 
101 
202 
202 
202 
202 
0 
0 
0 
0 
0 
0 
0 
0 
0 
0 
0 
0 
0 
0 
0 
0 
0 
0 
0 
0 
0 
0 
0 
0 
0 
0 
0 
0 
0 
0 
0 
0 
0 
0 
0 
0 
0 
0 
0 
0 
0 
0 
0 
0 
0 
0 
0 
0 
0 
0 
0 
0 
0 
0 
0 
0 
0 
0 
SCALARS BUNDA int 1
LOOKUP_TABLE default
0 
1 
2 
3 
4 
5 
6 
7 
8 
9 
10 
11 
12 
13 
14 
15 
16 
17 
18 
19 
20 
21 
22 
23 
24 
25 
26 
27 
28 
29 
30 
31 
32 
33 
0 
0 
0 
0 
0 
0 
0 
0 
0 
0 
0 
0 
0 
0 
0 
0 
0 
0 
0 
0 
0 
0 
0 
0 
0 
0 
0 
0 
0 
0 
0 
0 
CELL_DATA 200
SCALARS GLOBAL_ID int 1
LOOKUP_TABLE default
0 
1 
2 
3 
4 
5 
6 
7 
8 
9 
10 
11 
12 
13 
14 
15 
16 
17 
18 
19 
20 
21 
22 
23 
24 
25 
26 
27 
28 
29 
30 
31 
32 
33 
34 
35 
36 
37 
38 
39 
40 
41 
42 
43 
44 
45 
46 
47 
48 
49 
50 
51 
52 
53 
54 
55 
56 
57 
58 
59 
60 
61 
62 
63 
64 
65 
66 
67 
68 
69 
70 
71 
72 
73 
74 
75 
76 
77 
78 
79 
80 
81 
82 
83 
84 
85 
86 
87 
88 
89 
90 
91 
92 
93 
94 
95 
96 
97 
98 
99 
100 
101 
102 
103 
104 
105 
106 
107 
108 
109 
110 
111 
112 
113 
114 
115 
116 
117 
118 
119 
120 
121 
122 
123 
124 
125 
126 
127 
128 
129 
130 
131 
132 
133 
134 
135 
136 
137 
138 
139 
140 
141 
142 
143 
144 
145 
146 
147 
148 
149 
150 
151 
152 
153 
154 
155 
156 
157 
158 
159 
160 
161 
162 
163 
164 
165 
166 
167 
168 
169 
170 
171 
172 
173 
174 
175 
176 
177 
178 
179 
180 
181 
182 
183 
184 
185 
186 
187 
188 
189 
190 
191 
192 
193 
194 
195 
196 
197 
198 
199 
SCALARS MATERIAL int 1
LOOKUP_TABLE default
1 
1 
1 
1 
1 
1 
1 
1 
1 
1 
1 
1 
1 
1 
1 
1 
1 
1 
1 
1 
1 
1 
1 
1 
1 
1 
1 
1 
1 
1 
1 
1 
1 
1 
1 
1 
1 
1 
1 
1 
1 
1 
1 
1 
1 
1 
1 
1 
1 
1 
1 
1 
1 
1 
1 
1 
1 
1 
1 
1 
1 
1 
1 
1 
1 
1 
1 
1 
1 
1 
1 
1 
1 
1 
1 
1 
1 
1 
1 
1 
1 
1 
1 
1 
1 
1 
1 
1 
1 
1 
1 
1 
1 
1 
1 
1 
1 
1 
1 
1 
1 
1 
1 
1 
1 
1 
1 
1 
1 
1 
1 
1 
1 
1 
1 
1 
1 
1 
1 
1 
1 
1 
1 
1 
1 
1 
1 
1 
1 
1 
1 
1 
1 
1 
1 
1 
1 
1 
1 
1 
1 
1 
1 
1 
1 
1 
1 
1 
1 
1 
1 
1 
1 
1 
1 
1 
1 
1 
1 
1 
1 
1 
1 
1 
1 
1 
1 
1 
1 
1 
1 
1 
1 
1 
1 
1 
1 
1 
1 
1 
1 
1 
1 
1 
1 
1 
1 
1 
1 
1 
1 
1 
1 
1 
1 
1 
1 
1 
1 
1 
SCALARS PARALLEL int 1
LOOKUP_TABLE default
1 
1 
1 
1 
1 
0 
0 
0 
1 
1 
1 
1 
0 
0 
0 
0 
1 
1 
1 
1 
0 
0 
0 
1 
0 
1 
1 
0 
0 
1 
1 
1 
1 
1 
1 
0 
1 
1 
0 
0 
1 
1 
1 
1 
1 
0 
1 
1 
0 
1 
0 
0 
0 
0 
1 
1 
0 
0 
0 
0 
1 
1 
0 
0 
1 
1 
0 
0 
0 
0 
1 
0 
0 
0 
0 
0 
1 
1 
1 
1 
0 
1 
0 
1 
1 
1 
0 
0 
0 
1 
0 
0 
0 
1 
0 
1 
0 
0 
1 
1 
0 
0 
0 
0 
1 
0 
0 
0 
0 
1 
1 
0 
1 
1 
0 
0 
1 
0 
0 
0 
0 
0 
1 
1 
0 
0 
0 
0 
0 
0 
0 
0 
0 
0 
1 
1 
1 
1 
0 
0 
0 
0 
0 
0 
1 
1 
1 
1 
0 
0 
1 
0 
0 
1 
1 
1 
1 
1 
1 
1 
1 
1 
1 
1 
1 
1 
1 
1 
0 
0 
0 
0 
0 
0 
1 
1 
0 
0 
0 
0 
1 
1 
1 
0 
0 
1 
1 
1 
1 
1 
1 
1 
1 
0 
0 
1 
1 
1 
0 
0 
VECTORS CENTER double
0.8233673972 0.2622194742 0.3031173125 
0.8191681218 0.7354799047 0.3139654134 
0.6645203811 0.7022638118 0.3551323524 
0.6610805371 0.2971880311 0.3427577748 
0.4864389598 0.6380721707 0.3749996071 
0.6503009995 0.8472257424 0.7862072448 
0.09716826949 0.5220335141 0.6424020079 
0.7935935505 0.3655975621 0.7824026272 
0.7339764804 0.6507081192 0.2554461416 
0.7379863741 0.3472419653 0.2437558652 
0.5128637624 0.8272639397 0.3019451559 
0.5094239183 0.172188159 0.2895705783 
0.7427096454 0.298828255 0.8888882704 
0.4587610419 0.6922100207 0.8381852464 
0.7486443807 0.9190384181 0.6612072448 
0.2412211263 0.1749082224 0.7011187089 
0.334782341 0.7630722986 0.3218124106 
0.8987258199 0.3397871746 0.2265435176 
0.8910867005 0.6579718244 0.2250170409 
0.62899279 0.775708247 0.1893185845 
0.6903542067 0.2842583189 0.7162501807 
0.9052766509 0.2567816698 0.6574026272 
0.3424749881 0.2439763474 0.7589571837 
0.28650521 0.7134300574 0.2076191833 
0.2307918876 0.3489596726 0.8089005505 
0.1918503905 0.7938404282 0.2682640973 
0.7863246777 0.1724321717 0.4677577748 
0.2354851691 0.4458600338 0.7965267383 
0.09716826949 0.4887004 0.7247138552 
0.5461969715 0.8272639397 0.2196333633 
0.7427538173 0.1091927341 0.2027483367 
0.1747217897 0.8293295729 0.3269256031 
0.7343771931 0.8884872507 0.2001848206 
0.8133447968 0.4248096657 0.1671820703 
0.805895059 0.5732000389 0.166497769 
0.8020373071 0.1754424266 0.5912501807 
0.7183837068 0.137219602 0.2369897555 
0.7141844314 0.8604800326 0.2478378564 
0.8101382181 0.475966563 0.7953284402 
0.3290936039 0.8077269321 0.784566422 
0.8041648799 0.05913879989 0.2855661385 
0.8032379935 0.9400429433 0.2836869238 
0.2563038503 0.8741633428 0.4074647969 
0.8880289222 0.7870355973 0.3974675165 
0.8847784598 0.2121655399 0.3859351144 
0.4254278328 0.7745218133 0.8381852464 
0.08365984262 0.2348101391 0.3743654408 
0.2674956167 0.9214328119 0.1255353654 
0.7397455916 0.8715532123 0.9371057491 
0.1881618288 0.5884300574 0.1358065077 
0.1916899636 0.8356898438 0.4987860092 
0.8023554387 0.3733857006 0.9388220696 
0.9091050528 0.6094811521 0.7722147165 
0.9218213185 0.4921506707 0.7953284402 
0.09350700929 0.6688404282 0.1964514216 
0.08323256081 0.2507268152 0.4767599205 
0.06299935027 0.7661550421 0.8692132845 
0.32615728 0.09805421014 0.7927205838 
0.6527872012 0.2174890117 0.9315517161 
0.8101382181 0.4759666908 0.920328568 
0.4189080948 0.7961886712 0.05372268979 
0.4102433885 0.2098242949 0.05011239649 
0.1954213227 0.4940060216 0.8881286133 
0.1888099846 0.1166017795 0.6167437579 
0.2854875291 0.08506843548 0.05011239649 
0.2941522355 0.9214328119 0.05372268979 
0.1907280413 0.3971056604 0.9005024255 
0.7130889728 0.9433658879 0.9371057491 
0.4274111417 0.1671223352 0.8505590586 
0.5653542067 0.1592584467 0.8412503085 
0.1949156612 0.112410376 0.509128401 
0.601428692 0.8715532123 0.8282898568 
0.1877774913 0.6356841976 0.9177928149 
0.06299935027 0.7394987836 0.9410261675 
0.1679830407 0.6806264685 0.9410261675 
0.2176323624 0.9115415182 0.916615667 
0.7626006253 0.06945936589 0.08451457421 
0.7544133828 0.9289596058 0.0827932337 
0.7797947694 0.08716566779 0.3198075574 
0.7830452317 0.9120357252 0.3313399595 
0.08279380089 0.5761960964 0.7871074064 
0.09350700929 0.780523989 0.08763579441 
0.9140385391 0.2645698083 0.9388220696 
0.8987258199 0.2147873024 0.1015436455 
0.8910867005 0.7829719523 0.1000171687 
0.07637840852 0.8293295729 0.3801129275 
0.2007349848 0.9229189441 0.6256991713 
0.7644703016 0.1086731194 0.9315517161 
0.2144741795 0.09805421014 0.9015364761 
0.1062241257 0.2408534214 0.07937121431 
0.5216572806 0.8423122037 0.8674895502 
0.06898749969 0.2371390143 0.9137595306 
0.9091050528 0.7344812799 0.8972148444 
0.07637840852 0.9410131337 0.2712973003 
0.08905188437 0.9229189441 0.7345150635 
0.1493928401 0.1514097852 0.1639173826 
0.9052766509 0.1317817977 0.7824027551 
0.8869612803 0.9190384181 0.7700231371 
0.9091485703 0.05913879989 0.2266938234 
0.9082216839 0.9400429433 0.2248146086 
0.05363939576 0.09358033861 0.7715461049 
0.5747720732 0.9433658879 0.8282898568 
0.08000686315 0.8356898438 0.4826019015 
0.1916899636 0.9473734045 0.514970382 
0.08365984262 0.09649369988 0.2655498136 
0.8543927458 0.1900123627 0.8888882704 
0.08279380089 0.5495398379 0.8589202894 
0.4950006618 0.9141248793 0.8674895502 
0.3969891807 0.902520128 0.8375652833 
0.8477375078 0.1091927341 0.1438760215 
0.8393608836 0.8884872507 0.1413125055 
0.1060505375 0.1518867815 0.8559210558 
0.6576169348 0.06945936589 0.1433868893 
0.6494296923 0.9289596058 0.1416655488 
0.06898749969 0.3421223394 0.8548870052 
0.3226160529 0.8526692031 0.916615667 
0.7897645218 0.8275079524 0.4801323524 
0.8138892789 0.8236695968 0.5754068104 
0.6990785711 0.6464844965 0.8972148444 
0.7974219523 0.5932970443 0.7722147165 
0.6038627972 0.7356729413 0.8254069383 
0.7022061785 0.6824854891 0.7004068104 
0.1918503905 0.905523989 0.1594484701 
0.1747217897 0.9410131337 0.2181099759 
0.1461563075 0.7297820068 0.7347033192 
0.257839408 0.8281257483 0.6977003099 
0.09083391765 0.6567060028 0.6471377708 
0.2025170181 0.7550497443 0.6101347616 
0.7886178991 0.8472257424 0.8950231371 
0.8107616715 0.7876686043 0.8972148444 
0.0566402043 0.2356699088 0.6789101793 
0.0937032421 0.1704343508 0.6799442299 
0.109051346 0.2939763517 0.7632851303 
0.1461143838 0.2287407937 0.7643191809 
0.230979985 0.3656092807 0.07937121431 
0.1652469875 0.4490096347 0.1648192726 
0.2741486995 0.2761656445 0.1639173826 
0.208415702 0.3595659985 0.2493654408 
0.08905188437 0.8245752027 0.7877021805 
0.09263236241 0.8131977767 0.8448027839 
0.2250874639 0.7108332726 0.8880273062 
0.1201037734 0.6713618463 0.8162144232 
0.254720476 0.7578760072 0.8636168057 
0.1497367856 0.7184045808 0.7918039226 
0.3922514761 0.7961886712 0.1255353654 
0.4738618162 0.8458309124 0.1574168001 
0.500518435 0.8458309124 0.08560412445 
0.5759113686 0.8232001668 0.100370212 
0.2088513699 0.6203772555 0.6053989987 
0.3471682695 0.5908767086 0.7465833715 
0.4017469468 0.5901703236 0.5333977322 
0.5400638463 0.5606697766 0.6745821049 
0.5400638463 0.3106697766 0.6745821049 
0.3779510555 0.1603122232 0.2975429516 
0.5265028061 0.3266097437 0.4245821049 
0.4148197057 0.464926183 0.3922136244 
0.3196715206 0.2371662354 0.384128401 
0.2079884202 0.3754826746 0.3517599205 
0.3610224867 0.1904645734 0.1831036714 
0.3284121029 0.2453806587 0.1346585647 
0.2362666273 0.06570871399 0.1831036714 
0.2036562436 0.1206247993 0.1346585647 
0.5330993284 0.2049621438 0.06892702565 
0.5533597786 0.08020628441 0.1277993408 
0.5863297553 0.2222420932 0.1905686687 
0.6065902055 0.0974862338 0.2494409839 
0.5064427096 0.2049621438 0.1407397013 
0.5267031598 0.08020628441 0.1996120164 
0.252582433 0.2336978681 0.9674999607 
0.7699463956 0.2336371658 0.9851884123 
0.2138349304 0.8130214079 0.9761875931 
0.6279793441 0.873849763 0.981044354 
0.7974979141 0.6582518175 0.970393611 
0.3616493056 0.6066701645 0.9576009109 
0.03239290252 0.2594030202 0.231855418 
0.02408083189 0.7747861355 0.2355684329 
0.01326108637 0.2270527172 0.8164096434 
0.02055150218 0.6367914338 0.8720850141 
0.0269835956 0.801199359 0.6601093057 
0.03205107707 0.3774480281 0.609222675 
0.3792847655 0.9768600424 0.1259334401 
0.2050430802 0.9886775229 0.3389193358 
0.7746323941 0.9844122387 0.1801341216 
0.2336043922 0.9691139545 0.7700522267 
0.7371505618 0.9762949548 0.7815875314 
0.62649937 0.9620064642 0.3886539768 
0.2523910855 0.2437375557 0.01869405518 
0.7506758374 0.2398478349 0.03374575851 
0.250529463 0.7600908946 0.02159270437 
0.7447160472 0.7585601334 0.03319831751 
0.3704913779 0.02412188015 0.1259438546 
0.2025561569 0.02844509104 0.3380343613 
0.7752223979 0.01552434534 0.180963753 
0.2189969106 0.0317982138 0.7666765063 
0.7416298457 0.04035404353 0.7730002468 
0.6237474948 0.03794583966 0.3787543147 
0.968109506 0.2317865923 0.2474890556 
0.9679580007 0.7676220136 0.2468153152 
0.9719379554 0.2650712923 0.7658691411 
0.9617649428 0.7589356774 0.7473781622 
SCALARS VOLUME double 1
LOOKUP_TABLE default
0.001164038019 
0.001581607254 
0.01001996391 
0.01148874041 
0.03620387212 
0.002678541183 
0.002997988888 
0.003000646558 
0.005044526511 
0.004904011193 
0.005670941407 
0.005547216474 
0.0009906489141 
0.005148286338 
0.003575062111 
0.00152813611 
0.01309747145 
0.002998301768 
0.00383868359 
0.002739124707 
0.01192404851 
0.003037188098 
0.006128458027 
0.008792910813 
0.003359783851 
0.00237148714 
0.01055700875 
0.004367705508 
0.001547077451 
0.003971686492 
0.000436284871 
0.001541253564 
0.0005108344234 
0.0124953969 
0.0122870357 
0.01255681029 
0.0006319419752 
0.0009283645258 
0.0039851029 
0.0034517907 
0.001368500426 
0.001416909014 
0.00341830716 
0.004449658775 
0.004021325443 
0.004267465517 
0.001772101865 
0.00204316985 
0.001344534518 
0.01045178833 
0.004439873945 
0.00216788443 
0.00195157276 
0.004184016333 
0.002836203811 
0.004845145794 
0.001125840992 
0.002352687887 
0.002610827373 
0.003838316883 
0.001503971322 
0.001166819687 
0.004769280317 
0.004350726082 
0.001018845474 
0.0007284228521 
0.004060547944 
0.0004752013369 
0.009441485154 
0.008246563091 
0.005445245604 
0.001411788227 
0.001563508968 
0.0004334724871 
0.0009170658094 
0.002031699232 
0.001733784271 
0.001760580737 
0.002110082393 
0.002613080789 
0.001058053785 
0.004043727987 
0.002028586474 
0.002618580848 
0.003156785881 
0.001852282554 
0.001375098533 
0.00263167392 
0.002343467646 
0.003646810998 
0.001736314342 
0.00228978787 
0.00142175595 
0.002198354633 
0.001101643382 
0.001330176514 
0.004109522903 
0.00257712695 
0.001669835173 
0.001750739515 
0.001781767213 
0.0009489931653 
0.003908321088 
0.002671320287 
0.001587825571 
0.0009203705035 
0.0009892029723 
0.002761650585 
0.003415935168 
0.00049875827 
0.0005639138106 
0.00060315392 
0.001273837719 
0.00140345561 
0.001281401199 
0.001324875489 
0.008200649244 
0.0098907104 
0.001574995411 
0.003529557779 
0.00637083577 
0.01429989737 
0.002921573143 
0.001864945001 
0.0008961004749 
0.001856014074 
0.00265381954 
0.005503077539 
0.001918443304 
0.003344496655 
0.002318907347 
0.001219890324 
0.0009179589243 
0.0004291113495 
0.003223842474 
0.01025748086 
0.001075847803 
0.003582780502 
0.002511065454 
0.001380308086 
0.001034192784 
0.0007590870366 
0.001284923289 
0.001021249599 
0.001757032897 
0.001754250686 
0.002224689443 
0.003313561156 
0.006845006659 
0.00997606985 
0.01871691686 
0.0377560671 
0.02227600121 
0.006377711417 
0.03064320854 
0.01935987055 
0.01175456443 
0.01001387714 
0.002752831981 
0.002012771975 
0.003260328084 
0.002380404228 
0.003961083318 
0.002168993845 
0.003470655142 
0.0007546290837 
0.002948001762 
0.001078652975 
0 
0 
0 
0 
0 
0 
0 
0 
0 
0 
0 
0 
0 
0 
0 
0 
0 
0 
0 
0 
0 
0 
0 
0 
0 
0 
0 
0 
0 
0 
0 
0 
SCALARS PARTITION int 1
LOOKUP_TABLE default
17 
22 
15 
10 
12 
16 
4 
21 
20 
20 
14 
9 
19 
16 
23 
2 
14 
20 
20 
14 
19 
18 
11 
6 
5 
6 
18 
5 
5 
14 
17 
6 
22 
20 
20 
18 
17 
22 
21 
8 
17 
22 
7 
23 
18 
16 
1 
6 
24 
3 
7 
21 
21 
21 
6 
1 
8 
2 
11 
21 
14 
9 
5 
1 
0 
6 
5 
24 
11 
11 
1 
16 
5 
8 
8 
8 
17 
22 
17 
22 
5 
6 
19 
17 
22 
7 
7 
19 
2 
0 
16 
2 
24 
6 
8 
0 
19 
24 
17 
22 
2 
16 
7 
7 
0 
19 
5 
16 
16 
17 
22 
2 
9 
14 
5 
8 
23 
23 
21 
21 
16 
24 
6 
6 
8 
8 
4 
7 
24 
24 
2 
2 
2 
2 
3 
3 
0 
3 
8 
8 
8 
8 
8 
8 
14 
14 
14 
14 
4 
13 
12 
13 
11 
9 
10 
12 
1 
4 
9 
0 
0 
0 
9 
9 
9 
9 
9 
9 
2 
19 
8 
16 
21 
13 
0 
6 
2 
5 
7 
4 
14 
7 
22 
8 
24 
15 
0 
17 
6 
22 
9 
1 
17 
2 
19 
10 
17 
22 
19 
24 
