# vtk DataFile Version 3.0
MOAB 5.0.1
ASCII
DATASET UNSTRUCTURED_GRID
POINTS 371 double
0 0 0
1 0 0
1 1 0
0 1 0
0.0625 0 0
0.125 0 0
0.1875 0 0
0.25 0 0
0.3125 0 0
0.375 0 0
0.4375 0 0
0.5 0 0
0.5625 0 0
0.625 0 0
0.6875 0 0
0.75 0 0
0.8125 0 0
0.875 0 0
0.9375 0 0
1 0.0625 0
1 0.125 0
1 0.1875 0
1 0.25 0
1 0.3125 0
1 0.375 0
1 0.4375 0
1 0.5 0
1 0.5625 0
1 0.625 0
1 0.6875 0
1 0.75 0
1 0.8125 0
1 0.875 0
1 0.9375 0
0.9375 1 0
0.875 1 0
0.8125 1 0
0.75 1 0
0.6875 1 0
0.625 1 0
0.5625 1 0
0.5 1 0
0.4375 1 0
0.375 1 0
0.3125 1 0
0.25 1 0
0.1875 1 0
0.125 1 0
0.0625 1 0
0 0.9375 0
0 0.875 0
0 0.8125 0
0 0.75 0
0 0.6875 0
0 0.625 0
0 0.5625 0
0 0.5 0
0 0.4375 0
0 0.375 0
0 0.3125 0
0 0.25 0
0 0.1875 0
0 0.125 0
0 0.0625 0
0.4992134453 0.495146027 0
0.7144605647 0.7056616291 0
0.2943383709 0.7144605647 0
0.7056616291 0.2855394353 0
0.2855394353 0.2943383709 0
0.4913434 0.7778662174 0
0.2221337826 0.4913434 0
0.7778662174 0.5086566 0
0.5086566 0.2221337826 0
0.8225664925 0.8262991587 0
0.1737008413 0.8225664925 0
0.8262991587 0.1774335075 0
0.1774335075 0.1737008413 0
0.5672854148 0.6401009488 0
0.3658901692 0.5729591738 0
0.6411543518 0.4415014998 0
0.4438895256 0.3598897895 0
0.6311880676 0.8444052404 0
0.1555947596 0.6311880676 0
0.8444052404 0.3688119324 0
0.3688119324 0.1555947596 0
0.359199419 0.8492050321 0
0.8492050321 0.640800581 0
0.1507949679 0.359199419 0
0.640800581 0.1507949679 0
0.4512549829 0.6674399684 0
0.3285794461 0.4511614697 0
0.6660018711 0.5582850033 0
0.5582850033 0.3339981289 0
0.5318209228 0.8863497921 0
0.1136502079 0.5318209228 0
0.8863497921 0.4681790772 0
0.4681790772 0.1136502079 0
0.7422042213 0.8989301203 0
0.1010698797 0.7422042213 0
0.8989301203 0.2577957787 0
0.2577957787 0.1010698797 0
0.2505163445 0.8947953504 0
0.8947953504 0.7494836555 0
0.1052046496 0.2505163445 0
0.7494836555 0.1052046496 0
0.602838199 0.7433835133 0
0.2566164867 0.602838199 0
0.7433835133 0.397161801 0
0.397161801 0.2566164867 0
0.9079794338 0.9064838094 0
0.09351619063 0.9079794338 0
0.9064838094 0.09202056625 0
0.09202056625 0.09351619063 0
0.3887499154 0.7460194005 0
0.7460194005 0.6112500846 0
0.2539805995 0.3887499154 0
0.6112500846 0.2539805995 0
0.4382332529 0.9033867163 0
0.09661328374 0.4382332529 0
0.9033867163 0.5617667471 0
0.5617667471 0.09661328374 0
0.7314344584 0.7922226033 0
0.2077773967 0.7314344584 0
0.7922226033 0.2685655416 0
0.2685655416 0.2077773967 0
0.2753502817 0.7997939581 0
0.7997939581 0.7246497183 0
0.2002060419 0.2753502817 0
0.7246497183 0.2002060419 0
0.485414911 0.5801212744 0
0.572761639 0.5454702311 0
0.4117472115 0.4928402907 0
0.5517946223 0.4266459558 0
0.3554224532 0.6554354456 0
0.6544969013 0.6456540649 0
0.3384266613 0.3544302704 0
0.6456540649 0.3455030987 0
0.8114431449 0.9209012905 0
0.07909870952 0.8114431449 0
0.9209012905 0.1885568551 0
0.1885568551 0.07909870952 0
0.9189607044 0.8168216734 0
0.1831783266 0.9189607044 0
0.8168216734 0.08103929556 0
0.08103929556 0.1831783266 0
0.6156094427 0.9167636412 0
0.08323635885 0.6156094427 0
0.9167636412 0.3843905573 0
0.3843905573 0.08323635885 0
0.3450299401 0.9312265635 0
0.9312265635 0.6549700599 0
0.06877343646 0.3450299401 0
0.6549700599 0.06877343646 0
0.5034820655 0.7111831899 0
0.2881533792 0.50346648 0
0.7009833738 0.4888754989 0
0.4920118413 0.3017775885 0
0.4341455118 0.8415562571 0
0.1584437429 0.4341455118 0
0.8415562571 0.5658544882 0
0.5658544882 0.1584437429 0
0.4486915734 0.4452867972 0
0.5626018508 0.8135650019 0
0.1864349981 0.5626018508 0
0.8135650019 0.4373981492 0
0.4373981492 0.1864349981 0
0.6622313396 0.7821347832 0
0.2178652168 0.6622313396 0
0.7821347832 0.3377686604 0
0.3377686604 0.2178652168 0
0.6791179047 0.9309431695 0
0.06905683049 0.6791179047 0
0.9309431695 0.3208820953 0
0.3208820953 0.06905683049 0
0.4255066665 0.5584809533 0
0.5916718094 0.4826481542 0
0.5011156521 0.3741748647 0
0.4506378262 0.7334215287 0
0.7317547422 0.5513862063 0
0.2665784713 0.4506378262 0
0.5515222756 0.2683650414 0
0.4028615487 0.3999007001 0
0.492692893 0.9290298124 0
0.0709701876 0.492692893 0
0.9290298124 0.507307107 0
0.507307107 0.0709701876 0
0.4950821286 0.8415498292 0
0.1584501708 0.4950821286 0
0.8415498292 0.5049178714 0
0.5049178714 0.1584501708 0
0.3999311724 0.6225969119 0
0.7019670899 0.8406092524 0
0.1593907476 0.7019670899 0
0.8406092524 0.2980329101 0
0.2980329101 0.1593907476 0
0.8377054756 0.7684951793 0
0.2315048207 0.8377054756 0
0.1622945244 0.2315048207 0
0.7684951793 0.1622945244 0
0.3244983812 0.7591105588 0
0.7591105588 0.6755016188 0
0.2408894412 0.3244983812 0
0.6755016188 0.2408894412 0
0.2816786231 0.9457061901 0
0.9457061901 0.7183213769 0
0.05429380986 0.2816786231 0
0.7183213769 0.05429380986 0
0.6656695984 0.7072133604 0
0.2929404279 0.6658036762 0
0.7072133604 0.3343304016 0
0.3333194819 0.2927986875 0
0.6145938886 0.5996329227 0
0.5999695117 0.3856026976 0
0.6443278406 0.5030251292 0
0.7670159717 0.956012093 0
0.04398790702 0.7670159717 0
0.956012093 0.2329840283 0
0.2329840283 0.04398790702 0
0.398431893 0.9463364621 0
0.05366353794 0.398431893 0
0.9463364621 0.601568107 0
0.601568107 0.05366353794 0
0.7664138368 0.8371651013 0
0.1628348987 0.7664138368 0
0.8371651013 0.2335861632 0
0.2335861632 0.1628348987 0
0.9422007044 0.05779929559 0
0.05779929559 0.05779929559 0
0.9422007044 0.9422007044 0
0.05779929559 0.9422007044 0
0.5547660975 0.9383161602 0
0.06168383981 0.5547660975 0
0.9383161602 0.4452339025 0
0.4452339025 0.06168383981 0
0.2918563668 0.8480495862 0
0.8480495862 0.7081436332 0
0.1519504138 0.2918563668 0
0.7081436332 0.1519504138 0
0.5104301182 0.6440395073 0
0.3566020109 0.5129922658 0
0.5566012626 0.6920400774 0
0.3089547902 0.5579713161 0
0.6998109088 0.4343934044 0
0.435498278 0.3009501119 0
0.5433733556 0.7476076 0
0.2524586873 0.5436442492 0
0.7476986028 0.4536269057 0
0.4541453339 0.2535825936 0
0.2305746588 0.951892449 0
0.951892449 0.7694253412 0
0.04810755099 0.2305746588 0
0.7694253412 0.04810755099 0
0.8653153135 0.9450066808 0
0.05499331919 0.8653153135 0
0.9450066808 0.1346846865 0
0.1346846865 0.05499331919 0
0.944956245 0.8668190576 0
0.1331809424 0.944956245 0
0.8668190576 0.05504375499 0
0.05504375499 0.1331809424 0
0.3971866048 0.6906826213 0
0.6940976506 0.6059578841 0
0.3050370971 0.398568166 0
0.6059578841 0.3059023494 0
0.5855170201 0.8709262961 0
0.1290737039 0.5855170201 0
0.8709262961 0.4144829799 0
0.4144829799 0.1290737039 0
0.7495029997 0.7424961204 0
0.2575038796 0.7495029997 0
0.2504970003 0.2575038796 0
0.7424961204 0.2504970003 0
0.6161477283 0.7962185983 0
0.2037814017 0.6161477283 0
0.7962185983 0.3838522717 0
0.3838522717 0.2037814017 0
0.8539520446 0.8761598416 0
0.1238401584 0.8539520446 0
0.8761598416 0.1460479554 0
0.1460479554 0.1238401584 0
0.392432009 0.8939361543 0
0.8939361543 0.607567991 0
0.1060638457 0.392432009 0
0.607567991 0.1060638457 0
0.3806219909 0.7981943766 0
0.7981943766 0.6193780091 0
0.2018056234 0.3806219909 0
0.6193780091 0.2018056234 0
0.5168810228 0.5395536728 0
0.3428981283 0.7068904326 0
0.7056424457 0.6585397737 0
0.2900162667 0.3440350508 0
0.6585397737 0.2943575543 0
0.2181120198 0.7845695368 0
0.7845695368 0.7818879802 0
0.7818879802 0.2154304632 0
0.2154304632 0.2181120198 0
0.544019341 0.5925049691 0
0.7205555469 0.9594345993 0
0.04056540068 0.7205555469 0
0.9594345993 0.2794444531 0
0.2794444531 0.04056540068 0
0.507386988 0.4505970142 0
0.3263052879 0.8108707024 0
0.8108707024 0.6736947121 0
0.1891292976 0.3263052879 0
0.6736947121 0.1891292976 0
0.4530347087 0.5153464595 0
0.6097338165 0.6686422425 0
0.3311609779 0.6118668527 0
0.6694212241 0.3902643271 0
0.3864001577 0.3380493584 0
0.4830311908 0.8867702218 0
0.1132297782 0.4830311908 0
0.8867702218 0.5169688092 0
0.5169688092 0.1132297782 0
0.5399515878 0.4900101759 0
0.1875644663 0.8703993463 0
0.8703993463 0.8124355337 0
0.1296006537 0.1875644663 0
0.8124355337 0.1296006537 0
0.4290997288 0.779411556 0
0.7785249695 0.5708753734 0
0.220588444 0.4290997288 0
0.5708948118 0.2214921424 0
0.448870244 0.9537153546 0
0.04628464539 0.448870244 0
0.9537153546 0.551129756 0
0.551129756 0.04628464539 0
0.6718077313 0.8818668673 0
0.1181331327 0.6718077313 0
0.8818668673 0.3281922687 0
0.3281922687 0.1181331327 0
0.4542998502 0.6185561728 0
0.640205008 0.9580793873 0
0.04192061268 0.640205008 0
0.9580793873 0.359794992 0
0.359794992 0.04192061268 0
0.620797917 0.542252807 0
0.3836875997 0.450656831 0
0.3056561387 0.8937965445 0
0.8937965445 0.6943438613 0
0.1062034555 0.3056561387 0
0.6943438613 0.1062034555 0
0.5961475738 0.4340995769 0
0.5489992443 0.3790557845 0
0.5952224041 0.9651435796 0
0.03485642039 0.5952224041 0
0.9651435796 0.4047775959 0
0.4047775959 0.03485642039 0
0.1281088975 0.799315948 0
0.799315948 0.8718911025 0
0.8718911025 0.200684052 0
0.200684052 0.1281088975 0
0.7048927366 0.7478168944 0
0.2540850584 0.7046866077 0
0.7478168944 0.2951072634 0
0.2949628463 0.2521848267 0
0.9053790226 0.9673550537 0
0.03264494632 0.9053790226 0
0.9643201495 0.905459814 0
0.09454018596 0.9643201495 0
0.03567985049 0.09454018596 0
0.905459814 0.03567985049 0
0.9673550537 0.09462097737 0
0.09462097737 0.03264494632 0
0.3536438076 0.4017594627 0
0.8992495548 0.8557439831 0
0.1442560169 0.8992495548 0
0.1007504452 0.1442560169 0
0.8557439831 0.1007504452 0
CELLS 676 2704
3 339 181 161
3 131 174 239
3 78 239 174
3 80 156 176
3 92 176 156
3 28 29 150
3 43 44 149
3 58 59 151
3 13 14 152
3 131 339 161
3 117 280 157
3 85 157 280
3 118 282 158
3 119 281 159
3 86 159 281
3 87 158 282
3 120 283 160
3 88 160 283
3 36 137 252
3 51 138 253
3 21 139 254
3 6 140 255
3 31 256 141
3 46 257 142
3 16 258 143
3 61 259 144
3 129 307 288
3 105 162 244
3 106 163 245
3 107 164 246
3 108 165 247
3 36 214 137
3 51 215 138
3 21 216 139
3 6 217 140
3 89 153 177
3 69 177 153
3 90 154 179
3 70 179 154
3 91 155 178
3 71 178 155
3 92 156 180
3 72 180 156
3 105 272 162
3 106 273 163
3 107 274 164
3 108 275 165
3 64 307 161
3 131 161 307
3 80 176 161
3 129 174 307
3 101 248 142
3 102 249 141
3 103 250 144
3 104 251 143
3 91 261 211
3 92 263 212
3 97 351 137
3 98 350 138
3 99 352 139
3 100 353 140
3 97 137 214
3 98 138 215
3 99 139 216
3 100 140 217
3 31 141 249
3 46 142 248
3 16 143 251
3 61 144 250
3 101 142 317
3 102 141 318
3 103 144 319
3 104 143 320
3 134 211 261
3 136 212 263
3 93 186 162
3 94 187 163
3 69 162 186
3 70 163 187
3 95 188 164
3 96 189 165
3 71 164 188
3 72 165 189
3 117 157 312
3 118 158 313
3 119 159 314
3 120 160 315
3 181 366 311
3 105 207 166
3 106 208 167
3 107 209 168
3 108 210 169
3 79 155 213
3 89 238 153
3 90 239 154
3 135 311 366
3 44 203 149
3 29 204 150
3 59 205 151
3 14 206 152
3 80 161 181
3 81 329 145
3 82 330 146
3 83 331 147
3 84 332 148
3 132 175 316
3 132 316 302
3 85 149 340
3 86 150 341
3 87 151 342
3 88 152 343
3 1 19 226
3 0 4 227
3 3 49 229
3 2 34 228
3 1 226 18
3 0 227 63
3 3 229 48
3 2 228 33
3 69 244 162
3 70 245 163
3 71 246 164
3 72 247 165
3 80 181 311
3 85 280 149
3 86 281 150
3 87 282 151
3 88 283 152
3 41 182 230
3 56 183 231
3 26 184 232
3 11 185 233
3 166 207 354
3 167 208 355
3 168 209 356
3 169 210 357
3 43 149 218
3 28 150 220
3 58 151 219
3 13 152 221
3 81 166 191
3 82 167 192
3 121 191 166
3 122 192 167
3 83 168 193
3 84 169 194
3 123 193 168
3 124 194 169
3 81 145 264
3 82 146 265
3 83 147 266
3 84 148 267
3 91 213 155
3 157 186 312
3 158 187 313
3 159 188 314
3 160 189 315
3 79 242 155
3 80 243 156
3 69 153 244
3 70 154 245
3 71 155 246
3 72 156 247
3 77 240 238
3 153 238 240
3 78 241 239
3 154 239 241
3 56 231 55
3 41 230 40
3 11 233 10
3 26 232 25
3 133 289 208
3 134 290 207
3 135 291 210
3 136 292 209
3 64 161 302
3 69 186 157
3 70 187 158
3 71 188 159
3 72 189 160
3 89 260 190
3 133 190 260
3 69 157 321
3 70 158 323
3 71 159 322
3 72 160 324
3 65 207 290
3 66 208 289
3 68 210 291
3 67 209 292
3 161 176 302
3 85 284 157
3 86 285 159
3 87 286 158
3 88 287 160
3 132 302 176
3 50 51 253
3 35 36 252
3 47 257 46
3 32 256 31
3 62 259 61
3 17 258 16
3 20 21 254
3 5 6 255
3 145 230 264
3 146 231 265
3 93 264 230
3 94 265 231
3 147 232 266
3 95 266 232
3 148 233 267
3 96 267 233
3 240 308 105
3 241 309 106
3 242 310 107
3 243 311 108
3 308 207 105
3 309 208 106
3 310 209 107
3 311 210 108
3 81 264 162
3 82 265 163
3 83 266 164
3 84 267 165
3 64 288 307
3 93 162 264
3 94 163 265
3 95 164 266
3 96 165 267
3 81 162 272
3 82 163 273
3 83 164 274
3 84 165 275
3 79 213 175
3 145 329 170
3 146 330 171
3 147 331 172
3 148 332 173
3 113 284 199
3 114 285 200
3 115 286 201
3 116 287 202
3 65 354 207
3 66 355 208
3 67 356 209
3 68 357 210
3 199 284 303
3 200 285 304
3 201 286 305
3 202 287 306
3 78 174 190
3 97 298 170
3 98 299 171
3 99 300 172
3 100 301 173
3 37 214 36
3 52 215 51
3 22 216 21
3 7 217 6
3 126 294 268
3 125 293 269
3 127 296 270
3 128 295 271
3 126 235 195
3 125 234 196
3 127 236 197
3 128 237 198
3 102 195 235
3 101 196 234
3 103 197 236
3 104 198 237
3 78 190 309
3 85 340 234
3 86 341 235
3 87 342 236
3 88 343 237
3 97 191 222
3 98 192 223
3 121 222 191
3 122 223 192
3 99 193 224
3 100 194 225
3 123 224 193
3 124 225 194
3 89 177 260
3 91 178 261
3 90 179 262
3 113 260 177
3 92 180 263
3 114 261 178
3 115 262 179
3 116 263 180
3 97 170 329
3 98 171 330
3 99 172 331
3 100 173 332
3 81 272 166
3 82 273 167
3 83 274 168
3 84 275 169
3 105 166 272
3 106 167 273
3 107 168 274
3 108 169 275
3 130 175 338
3 121 166 354
3 122 167 355
3 123 168 356
3 124 169 357
3 74 317 277
3 73 318 276
3 75 320 278
3 76 319 279
3 277 317 368
3 276 318 367
3 278 320 370
3 279 319 369
3 126 195 294
3 125 196 293
3 127 197 296
3 128 198 295
3 69 321 177
3 70 323 179
3 71 322 178
3 72 324 180
3 133 309 190
3 41 325 182
3 56 326 183
3 26 327 184
3 11 328 185
3 38 334 170
3 53 335 171
3 23 336 172
3 8 337 173
3 41 42 325
3 56 57 326
3 26 27 327
3 11 12 328
3 89 333 238
3 129 333 174
3 97 214 298
3 98 215 299
3 99 216 300
3 100 217 301
3 43 218 42
3 58 219 57
3 28 220 27
3 13 221 12
3 90 339 239
3 97 222 351
3 98 223 350
3 99 224 352
3 100 225 353
3 145 170 334
3 146 171 335
3 147 172 336
3 148 173 337
3 102 204 249
3 101 203 248
3 103 205 250
3 104 206 251
3 130 211 297
3 65 200 268
3 66 199 269
3 68 201 270
3 126 268 200
3 125 269 199
3 67 202 271
3 127 270 201
3 128 271 202
3 93 230 182
3 94 231 183
3 95 232 184
3 96 233 185
3 38 170 298
3 53 171 299
3 23 172 300
3 8 173 301
3 137 276 252
3 138 277 253
3 139 278 254
3 140 279 255
3 109 252 276
3 110 253 277
3 112 255 279
3 111 254 278
3 132 344 175
3 79 175 344
3 132 176 345
3 92 345 176
3 77 297 211
3 175 213 338
3 30 204 29
3 45 203 44
3 15 206 14
3 60 205 59
3 102 318 195
3 101 317 196
3 103 319 197
3 104 320 198
3 97 329 191
3 98 330 192
3 99 331 193
3 100 332 194
3 45 46 248
3 30 31 249
3 15 16 251
3 60 61 250
3 130 316 175
3 131 307 174
3 77 211 308
3 134 308 211
3 79 212 310
3 136 310 212
3 174 333 190
3 64 302 316
3 91 211 338
3 39 334 38
3 54 335 53
3 24 336 23
3 9 337 8
3 113 177 321
3 114 178 322
3 115 179 323
3 116 180 324
3 92 212 345
3 122 269 293
3 121 268 294
3 124 270 296
3 123 271 295
3 109 228 358
3 110 229 359
3 109 360 228
3 110 361 229
3 111 363 226
3 112 362 227
3 112 227 365
3 111 226 364
3 149 203 340
3 150 204 341
3 151 205 342
3 152 206 343
3 109 358 252
3 110 359 253
3 112 365 255
3 111 364 254
3 110 257 361
3 109 256 360
3 111 258 363
3 112 259 362
3 42 218 325
3 57 219 326
3 27 220 327
3 12 221 328
3 45 248 203
3 30 249 204
3 60 250 205
3 15 251 206
3 153 240 244
3 154 241 245
3 155 242 246
3 156 243 247
3 105 244 240
3 106 245 241
3 107 246 242
3 108 247 243
3 113 199 289
3 114 200 290
3 115 201 291
3 116 202 292
3 133 260 289
3 134 261 290
3 135 262 291
3 136 263 292
3 129 238 333
3 129 297 238
3 77 238 297
3 52 53 299
3 37 38 298
3 22 23 300
3 7 8 301
3 117 218 280
3 118 219 282
3 119 220 281
3 120 221 283
3 149 280 218
3 150 281 220
3 151 282 219
3 152 283 221
3 117 182 325
3 118 183 326
3 119 184 327
3 120 185 328
3 93 182 312
3 94 183 313
3 95 184 314
3 96 185 315
3 73 294 195
3 74 293 196
3 75 295 198
3 76 296 197
3 66 289 199
3 65 290 200
3 68 291 201
3 67 292 202
3 117 312 182
3 118 313 183
3 119 314 184
3 120 315 185
3 85 303 284
3 86 304 285
3 87 305 286
3 88 306 287
3 101 340 203
3 102 341 204
3 103 342 205
3 104 343 206
3 122 293 223
3 121 294 222
3 74 223 293
3 73 222 294
3 123 295 224
3 124 296 225
3 75 224 295
3 76 225 296
3 130 338 211
3 134 207 308
3 133 208 309
3 136 209 310
3 135 210 311
3 93 312 186
3 94 313 187
3 95 314 188
3 96 315 189
3 39 40 346
3 54 55 347
3 24 25 348
3 9 10 349
3 125 199 303
3 126 200 304
3 127 201 305
3 128 202 306
3 35 358 34
3 50 359 49
3 20 364 19
3 5 365 4
3 17 18 363
3 62 63 362
3 32 33 360
3 47 48 361
3 113 289 260
3 114 290 261
3 115 291 262
3 116 292 263
3 132 345 212
3 74 196 317
3 73 195 318
3 75 198 320
3 76 197 319
3 81 191 329
3 82 192 330
3 83 193 331
3 84 194 332
3 89 190 333
3 37 298 214
3 52 299 215
3 22 300 216
3 7 301 217
3 131 239 339
3 130 297 288
3 181 339 366
3 90 366 339
3 117 325 218
3 118 326 219
3 119 327 220
3 120 328 221
3 125 303 234
3 126 304 235
3 85 234 303
3 86 235 304
3 127 305 236
3 128 306 237
3 87 236 305
3 88 237 306
3 132 212 344
3 79 344 212
3 122 355 269
3 121 354 268
3 123 356 271
3 124 357 270
3 77 308 240
3 78 309 241
3 79 310 242
3 80 311 243
3 91 338 213
3 113 321 284
3 114 322 285
3 115 323 286
3 116 324 287
3 129 288 297
3 142 368 317
3 141 367 318
3 143 370 320
3 144 369 319
3 74 350 223
3 73 351 222
3 75 352 224
3 76 353 225
3 40 230 346
3 55 231 347
3 25 232 348
3 10 233 349
3 109 367 256
3 110 368 257
3 112 369 259
3 111 370 258
3 141 256 367
3 142 257 368
3 143 258 370
3 144 259 369
3 101 234 340
3 102 235 341
3 103 236 342
3 104 237 343
3 130 288 316
3 145 346 230
3 146 347 231
3 147 348 232
3 148 349 233
3 19 364 226
3 4 365 227
3 49 359 229
3 34 358 228
3 18 226 363
3 63 227 362
3 33 228 360
3 48 229 361
3 64 316 288
3 90 262 366
3 135 366 262
3 157 284 321
3 159 285 322
3 158 286 323
3 160 287 324
3 35 252 358
3 50 253 359
3 20 254 364
3 5 255 365
3 47 361 257
3 32 360 256
3 17 363 258
3 62 362 259
3 74 277 350
3 73 276 351
3 76 279 353
3 75 278 352
3 65 268 354
3 66 269 355
3 68 270 357
3 67 271 356
3 137 351 276
3 138 350 277
3 139 352 278
3 140 353 279
3 109 276 367
3 110 277 368
3 112 279 369
3 111 278 370
3 145 334 346
3 146 335 347
3 147 336 348
3 148 337 349
3 39 346 334
3 54 347 335
3 24 348 336
3 9 349 337
CELL_TYPES 676
5
5
5
5
5
5
5
5
5
5
5
5
5
5
5
5
5
5
5
5
5
5
5
5
5
5
5
5
5
5
5
5
5
5
5
5
5
5
5
5
5
5
5
5
5
5
5
5
5
5
5
5
5
5
5
5
5
5
5
5
5
5
5
5
5
5
5
5
5
5
5
5
5
5
5
5
5
5
5
5
5
5
5
5
5
5
5
5
5
5
5
5
5
5
5
5
5
5
5
5
5
5
5
5
5
5
5
5
5
5
5
5
5
5
5
5
5
5
5
5
5
5
5
5
5
5
5
5
5
5
5
5
5
5
5
5
5
5
5
5
5
5
5
5
5
5
5
5
5
5
5
5
5
5
5
5
5
5
5
5
5
5
5
5
5
5
5
5
5
5
5
5
5
5
5
5
5
5
5
5
5
5
5
5
5
5
5
5
5
5
5
5
5
5
5
5
5
5
5
5
5
5
5
5
5
5
5
5
5
5
5
5
5
5
5
5
5
5
5
5
5
5
5
5
5
5
5
5
5
5
5
5
5
5
5
5
5
5
5
5
5
5
5
5
5
5
5
5
5
5
5
5
5
5
5
5
5
5
5
5
5
5
5
5
5
5
5
5
5
5
5
5
5
5
5
5
5
5
5
5
5
5
5
5
5
5
5
5
5
5
5
5
5
5
5
5
5
5
5
5
5
5
5
5
5
5
5
5
5
5
5
5
5
5
5
5
5
5
5
5
5
5
5
5
5
5
5
5
5
5
5
5
5
5
5
5
5
5
5
5
5
5
5
5
5
5
5
5
5
5
5
5
5
5
5
5
5
5
5
5
5
5
5
5
5
5
5
5
5
5
5
5
5
5
5
5
5
5
5
5
5
5
5
5
5
5
5
5
5
5
5
5
5
5
5
5
5
5
5
5
5
5
5
5
5
5
5
5
5
5
5
5
5
5
5
5
5
5
5
5
5
5
5
5
5
5
5
5
5
5
5
5
5
5
5
5
5
5
5
5
5
5
5
5
5
5
5
5
5
5
5
5
5
5
5
5
5
5
5
5
5
5
5
5
5
5
5
5
5
5
5
5
5
5
5
5
5
5
5
5
5
5
5
5
5
5
5
5
5
5
5
5
5
5
5
5
5
5
5
5
5
5
5
5
5
5
5
5
5
5
5
5
5
5
5
5
5
5
5
5
5
5
5
5
5
5
5
5
5
5
5
5
5
5
5
5
5
5
5
5
5
5
5
5
5
5
5
5
5
5
5
5
5
5
5
5
5
5
5
5
5
5
5
5
5
5
5
5
5
5
5
5
5
5
5
5
5
5
5
5
5
5
5
5
5
5
5
5
5
5
5
5
5
5
5
5
5
5
5
5
5
5
5
5
5
5
5
5
5
5
5
5
5
5
5
5
5
5
5
5
5
5
5
5
5
5
5
5
5
5
5
5
5
5
5
5
5
5
5
5
5
5
5
5
5
5
5
5
5
5
5
5
5
5
5
5
5
5
5
5
5
5
5
5
5
5
5
5
5
5
5
5
5
5
5
5
POINT_DATA 371
SCALARS GLOBAL_ID int 1
LOOKUP_TABLE default
0 
1 
2 
3 
4 
5 
6 
7 
8 
9 
10 
11 
12 
13 
14 
15 
16 
17 
18 
19 
20 
21 
22 
23 
24 
25 
26 
27 
28 
29 
30 
31 
32 
33 
34 
35 
36 
37 
38 
39 
40 
41 
42 
43 
44 
45 
46 
47 
48 
49 
50 
51 
52 
53 
54 
55 
56 
57 
58 
59 
60 
61 
62 
63 
64 
65 
66 
67 
68 
69 
70 
71 
72 
73 
74 
75 
76 
77 
78 
79 
80 
81 
82 
83 
84 
85 
86 
87 
88 
89 
90 
91 
92 
93 
94 
95 
96 
97 
98 
99 
100 
101 
102 
103 
104 
105 
106 
107 
108 
109 
110 
111 
112 
113 
114 
115 
116 
117 
118 
119 
120 
121 
122 
123 
124 
125 
126 
127 
128 
129 
130 
131 
132 
133 
134 
135 
136 
137 
138 
139 
140 
141 
142 
143 
144 
145 
146 
147 
148 
149 
150 
151 
152 
153 
154 
155 
156 
157 
158 
159 
160 
161 
162 
163 
164 
165 
166 
167 
168 
169 
170 
171 
172 
173 
174 
175 
176 
177 
178 
179 
180 
181 
182 
183 
184 
185 
186 
187 
188 
189 
190 
191 
192 
193 
194 
195 
196 
197 
198 
199 
200 
201 
202 
203 
204 
205 
206 
207 
208 
209 
210 
211 
212 
213 
214 
215 
216 
217 
218 
219 
220 
221 
222 
223 
224 
225 
226 
227 
228 
229 
230 
231 
232 
233 
234 
235 
236 
237 
238 
239 
240 
241 
242 
243 
244 
245 
246 
247 
248 
249 
250 
251 
252 
253 
254 
255 
256 
257 
258 
259 
260 
261 
262 
263 
264 
265 
266 
267 
268 
269 
270 
271 
272 
273 
274 
275 
276 
277 
278 
279 
280 
281 
282 
283 
284 
285 
286 
287 
288 
289 
290 
291 
292 
293 
294 
295 
296 
297 
298 
299 
300 
301 
302 
303 
304 
305 
306 
307 
308 
309 
310 
311 
312 
313 
314 
315 
316 
317 
318 
319 
320 
321 
322 
323 
324 
325 
326 
327 
328 
329 
330 
331 
332 
333 
334 
335 
336 
337 
338 
339 
340 
341 
342 
343 
344 
345 
346 
347 
348 
349 
350 
351 
352 
353 
354 
355 
356 
357 
358 
359 
360 
361 
362 
363 
364 
365 
366 
367 
368 
369 
370 
SCALARS ID-NODES int 1
LOOKUP_TABLE default
0 
1 
2 
3 
4 
5 
6 
7 
8 
9 
10 
11 
12 
13 
14 
15 
16 
17 
18 
19 
20 
21 
22 
23 
24 
25 
26 
27 
28 
29 
30 
31 
32 
33 
34 
35 
36 
37 
38 
39 
40 
41 
42 
43 
44 
45 
46 
47 
48 
49 
50 
51 
52 
53 
54 
55 
56 
57 
58 
59 
60 
61 
62 
63 
64 
65 
66 
67 
68 
69 
70 
71 
72 
73 
74 
75 
76 
77 
78 
79 
80 
81 
82 
83 
84 
85 
86 
87 
88 
89 
90 
91 
92 
93 
94 
95 
96 
97 
98 
99 
100 
101 
102 
103 
104 
105 
106 
107 
108 
109 
110 
111 
112 
113 
114 
115 
116 
117 
118 
119 
120 
121 
122 
123 
124 
125 
126 
127 
128 
129 
130 
131 
132 
133 
134 
135 
136 
137 
138 
139 
140 
141 
142 
143 
144 
145 
146 
147 
148 
149 
150 
151 
152 
153 
154 
155 
156 
157 
158 
159 
160 
161 
162 
163 
164 
165 
166 
167 
168 
169 
170 
171 
172 
173 
174 
175 
176 
177 
178 
179 
180 
181 
182 
183 
184 
185 
186 
187 
188 
189 
190 
191 
192 
193 
194 
195 
196 
197 
198 
199 
200 
201 
202 
203 
204 
205 
206 
207 
208 
209 
210 
211 
212 
213 
214 
215 
216 
217 
218 
219 
220 
221 
222 
223 
224 
225 
226 
227 
228 
229 
230 
231 
232 
233 
234 
235 
236 
237 
238 
239 
240 
241 
242 
243 
244 
245 
246 
247 
248 
249 
250 
251 
252 
253 
254 
255 
256 
257 
258 
259 
260 
261 
262 
263 
264 
265 
266 
267 
268 
269 
270 
271 
272 
273 
274 
275 
276 
277 
278 
279 
280 
281 
282 
283 
284 
285 
286 
287 
288 
289 
290 
291 
292 
293 
294 
295 
296 
297 
298 
299 
300 
301 
302 
303 
304 
305 
306 
307 
308 
309 
310 
311 
312 
313 
314 
315 
316 
317 
318 
319 
320 
321 
322 
323 
324 
325 
326 
327 
328 
329 
330 
331 
332 
333 
334 
335 
336 
337 
338 
339 
340 
341 
342 
343 
344 
345 
346 
347 
348 
349 
350 
351 
352 
353 
354 
355 
356 
357 
358 
359 
360 
361 
362 
363 
364 
365 
366 
367 
368 
369 
370 
SCALARS FLAGS int 1
LOOKUP_TABLE default
301 
301 
302 
302 
0 
0 
0 
0 
0 
0 
0 
0 
0 
0 
0 
0 
0 
0 
0 
0 
0 
0 
0 
0 
0 
0 
0 
0 
0 
0 
0 
0 
0 
0 
0 
0 
0 
0 
0 
0 
0 
0 
0 
0 
0 
0 
0 
0 
0 
0 
0 
0 
0 
0 
0 
0 
0 
0 
0 
0 
0 
0 
0 
0 
0 
0 
0 
0 
0 
0 
0 
0 
0 
0 
0 
0 
0 
0 
0 
0 
0 
0 
0 
0 
0 
0 
0 
0 
0 
0 
0 
0 
0 
0 
0 
0 
0 
0 
0 
0 
0 
0 
0 
0 
0 
0 
0 
0 
0 
0 
0 
0 
0 
0 
0 
0 
0 
0 
0 
0 
0 
0 
0 
0 
0 
0 
0 
0 
0 
0 
0 
0 
0 
0 
0 
0 
0 
0 
0 
0 
0 
0 
0 
0 
0 
0 
0 
0 
0 
0 
0 
0 
0 
0 
0 
0 
0 
0 
0 
0 
0 
0 
0 
0 
0 
0 
0 
0 
0 
0 
0 
0 
0 
0 
0 
0 
0 
0 
0 
0 
0 
0 
0 
0 
0 
0 
0 
0 
0 
0 
0 
0 
0 
0 
0 
0 
0 
0 
0 
0 
0 
0 
0 
0 
0 
0 
0 
0 
0 
0 
0 
0 
0 
0 
0 
0 
0 
0 
0 
0 
0 
0 
0 
0 
0 
0 
0 
0 
0 
0 
0 
0 
0 
0 
0 
0 
0 
0 
0 
0 
0 
0 
0 
0 
0 
0 
0 
0 
0 
0 
0 
0 
0 
0 
0 
0 
0 
0 
0 
0 
0 
0 
0 
0 
0 
0 
0 
0 
0 
0 
0 
0 
0 
0 
0 
0 
0 
0 
0 
0 
0 
0 
0 
0 
0 
0 
0 
0 
0 
0 
0 
0 
0 
0 
0 
0 
0 
0 
0 
0 
0 
0 
0 
0 
0 
0 
0 
0 
0 
0 
0 
0 
0 
0 
0 
0 
0 
0 
0 
0 
0 
0 
0 
0 
0 
0 
0 
0 
0 
0 
0 
0 
0 
0 
0 
0 
0 
0 
0 
0 
0 
0 
0 
0 
0 
0 
0 
0 
0 
0 
0 
0 
0 
0 
0 
0 
0 
0 
0 
0 
0 
0 
0 
0 
0 
0 
0 
0 
0 
0 
0 
CELL_DATA 676
SCALARS GLOBAL_ID int 1
LOOKUP_TABLE default
0 
1 
2 
3 
4 
5 
6 
7 
8 
9 
10 
11 
12 
13 
14 
15 
16 
17 
18 
19 
20 
21 
22 
23 
24 
25 
26 
27 
28 
29 
30 
31 
32 
33 
34 
35 
36 
37 
38 
39 
40 
41 
42 
43 
44 
45 
46 
47 
48 
49 
50 
51 
52 
53 
54 
55 
56 
57 
58 
59 
60 
61 
62 
63 
64 
65 
66 
67 
68 
69 
70 
71 
72 
73 
74 
75 
76 
77 
78 
79 
80 
81 
82 
83 
84 
85 
86 
87 
88 
89 
90 
91 
92 
93 
94 
95 
96 
97 
98 
99 
100 
101 
102 
103 
104 
105 
106 
107 
108 
109 
110 
111 
112 
113 
114 
115 
116 
117 
118 
119 
120 
121 
122 
123 
124 
125 
126 
127 
128 
129 
130 
131 
132 
133 
134 
135 
136 
137 
138 
139 
140 
141 
142 
143 
144 
145 
146 
147 
148 
149 
150 
151 
152 
153 
154 
155 
156 
157 
158 
159 
160 
161 
162 
163 
164 
165 
166 
167 
168 
169 
170 
171 
172 
173 
174 
175 
176 
177 
178 
179 
180 
181 
182 
183 
184 
185 
186 
187 
188 
189 
190 
191 
192 
193 
194 
195 
196 
197 
198 
199 
200 
201 
202 
203 
204 
205 
206 
207 
208 
209 
210 
211 
212 
213 
214 
215 
216 
217 
218 
219 
220 
221 
222 
223 
224 
225 
226 
227 
228 
229 
230 
231 
232 
233 
234 
235 
236 
237 
238 
239 
240 
241 
242 
243 
244 
245 
246 
247 
248 
249 
250 
251 
252 
253 
254 
255 
256 
257 
258 
259 
260 
261 
262 
263 
264 
265 
266 
267 
268 
269 
270 
271 
272 
273 
274 
275 
276 
277 
278 
279 
280 
281 
282 
283 
284 
285 
286 
287 
288 
289 
290 
291 
292 
293 
294 
295 
296 
297 
298 
299 
300 
301 
302 
303 
304 
305 
306 
307 
308 
309 
310 
311 
312 
313 
314 
315 
316 
317 
318 
319 
320 
321 
322 
323 
324 
325 
326 
327 
328 
329 
330 
331 
332 
333 
334 
335 
336 
337 
338 
339 
340 
341 
342 
343 
344 
345 
346 
347 
348 
349 
350 
351 
352 
353 
354 
355 
356 
357 
358 
359 
360 
361 
362 
363 
364 
365 
366 
367 
368 
369 
370 
371 
372 
373 
374 
375 
376 
377 
378 
379 
380 
381 
382 
383 
384 
385 
386 
387 
388 
389 
390 
391 
392 
393 
394 
395 
396 
397 
398 
399 
400 
401 
402 
403 
404 
405 
406 
407 
408 
409 
410 
411 
412 
413 
414 
415 
416 
417 
418 
419 
420 
421 
422 
423 
424 
425 
426 
427 
428 
429 
430 
431 
432 
433 
434 
435 
436 
437 
438 
439 
440 
441 
442 
443 
444 
445 
446 
447 
448 
449 
450 
451 
452 
453 
454 
455 
456 
457 
458 
459 
460 
461 
462 
463 
464 
465 
466 
467 
468 
469 
470 
471 
472 
473 
474 
475 
476 
477 
478 
479 
480 
481 
482 
483 
484 
485 
486 
487 
488 
489 
490 
491 
492 
493 
494 
495 
496 
497 
498 
499 
500 
501 
502 
503 
504 
505 
506 
507 
508 
509 
510 
511 
512 
513 
514 
515 
516 
517 
518 
519 
520 
521 
522 
523 
524 
525 
526 
527 
528 
529 
530 
531 
532 
533 
534 
535 
536 
537 
538 
539 
540 
541 
542 
543 
544 
545 
546 
547 
548 
549 
550 
551 
552 
553 
554 
555 
556 
557 
558 
559 
560 
561 
562 
563 
564 
565 
566 
567 
568 
569 
570 
571 
572 
573 
574 
575 
576 
577 
578 
579 
580 
581 
582 
583 
584 
585 
586 
587 
588 
589 
590 
591 
592 
593 
594 
595 
596 
597 
598 
599 
600 
601 
602 
603 
604 
605 
606 
607 
608 
609 
610 
611 
612 
613 
614 
615 
616 
617 
618 
619 
620 
621 
622 
623 
624 
625 
626 
627 
628 
629 
630 
631 
632 
633 
634 
635 
636 
637 
638 
639 
640 
641 
642 
643 
644 
645 
646 
647 
648 
649 
650 
651 
652 
653 
654 
655 
656 
657 
658 
659 
660 
661 
662 
663 
664 
665 
666 
667 
668 
669 
670 
671 
672 
673 
674 
675 
SCALARS ID-FACES int 1
LOOKUP_TABLE default
0 
1 
2 
3 
4 
5 
6 
7 
8 
9 
10 
11 
12 
13 
14 
15 
16 
17 
18 
19 
20 
21 
22 
23 
24 
25 
26 
27 
28 
29 
30 
31 
32 
33 
34 
35 
36 
37 
38 
39 
40 
41 
42 
43 
44 
45 
46 
47 
48 
49 
50 
51 
52 
53 
54 
55 
56 
57 
58 
59 
60 
61 
62 
63 
64 
65 
66 
67 
68 
69 
70 
71 
72 
73 
74 
75 
76 
77 
78 
79 
80 
81 
82 
83 
84 
85 
86 
87 
88 
89 
90 
91 
92 
93 
94 
95 
96 
97 
98 
99 
100 
101 
102 
103 
104 
105 
106 
107 
108 
109 
110 
111 
112 
113 
114 
115 
116 
117 
118 
119 
120 
121 
122 
123 
124 
125 
126 
127 
128 
129 
130 
131 
132 
133 
134 
135 
136 
137 
138 
139 
140 
141 
142 
143 
144 
145 
146 
147 
148 
149 
150 
151 
152 
153 
154 
155 
156 
157 
158 
159 
160 
161 
162 
163 
164 
165 
166 
167 
168 
169 
170 
171 
172 
173 
174 
175 
176 
177 
178 
179 
180 
181 
182 
183 
184 
185 
186 
187 
188 
189 
190 
191 
192 
193 
194 
195 
196 
197 
198 
199 
200 
201 
202 
203 
204 
205 
206 
207 
208 
209 
210 
211 
212 
213 
214 
215 
216 
217 
218 
219 
220 
221 
222 
223 
224 
225 
226 
227 
228 
229 
230 
231 
232 
233 
234 
235 
236 
237 
238 
239 
240 
241 
242 
243 
244 
245 
246 
247 
248 
249 
250 
251 
252 
253 
254 
255 
256 
257 
258 
259 
260 
261 
262 
263 
264 
265 
266 
267 
268 
269 
270 
271 
272 
273 
274 
275 
276 
277 
278 
279 
280 
281 
282 
283 
284 
285 
286 
287 
288 
289 
290 
291 
292 
293 
294 
295 
296 
297 
298 
299 
300 
301 
302 
303 
304 
305 
306 
307 
308 
309 
310 
311 
312 
313 
314 
315 
316 
317 
318 
319 
320 
321 
322 
323 
324 
325 
326 
327 
328 
329 
330 
331 
332 
333 
334 
335 
336 
337 
338 
339 
340 
341 
342 
343 
344 
345 
346 
347 
348 
349 
350 
351 
352 
353 
354 
355 
356 
357 
358 
359 
360 
361 
362 
363 
364 
365 
366 
367 
368 
369 
370 
371 
372 
373 
374 
375 
376 
377 
378 
379 
380 
381 
382 
383 
384 
385 
386 
387 
388 
389 
390 
391 
392 
393 
394 
395 
396 
397 
398 
399 
400 
401 
402 
403 
404 
405 
406 
407 
408 
409 
410 
411 
412 
413 
414 
415 
416 
417 
418 
419 
420 
421 
422 
423 
424 
425 
426 
427 
428 
429 
430 
431 
432 
433 
434 
435 
436 
437 
438 
439 
440 
441 
442 
443 
444 
445 
446 
447 
448 
449 
450 
451 
452 
453 
454 
455 
456 
457 