# vtk DataFile Version 3.0
MOAB 5.0.1
ASCII
DATASET UNSTRUCTURED_GRID
POINTS 102 double
0 0 0
1 0 0
0 1 0
1 1 0
0 0 1
1 0 1
0 1 1
1 1 1
1 0.5 0
0.5 0 1
0.5 0 0
1 1 0.5
0.5 1 1
1 0 0.5
0 0 0.5
0 0.5 1
0.5 1 0
0 1 0.5
0 0.5 0
1 0.5 1
0.4339667523 1 0.4504049841
0.7113549042 1 0.3983555008
0.7622921241 1 0.5840829765
0.5 0.5000011933 1
1 0.6449164929 0.3549476928
0.4990234375 0.4990234375 0
0.4339667523 0 0.4504049841
0 0.3933749659 0.2872515322
0 0.5800666993 0.2354901017
0 0.4467342431 0.5647374911
0.7113549042 0 0.3983555008
0.7622921241 0 0.5840829765
1 0.4957917825 0.5040592833
1 0.3317745088 0.6678809306
0.8378936996 0.897067013 0.3886619151
0.8754473032 0.8251844672 0.4522285604
0.5341698095 0.758203377 0.759588829
0.5622933064 0.3537223762 0.6964381148
0.3874976844 0.1887340671 0.6906958078
0.5059082681 0.1910398354 0.5416214908
0.7519243749 0.5871017236 0.2302703551
0.5060734883 0.7498003046 0.2218473501
0.4958853849 0.2062422947 0.2818922797
0.5698742075 0.5854736399 0.4623300714
0.5926416782 0.8192627916 0.5058574293
0.7647044817 0.7428252812 0.432168232
0.8641709197 0.2043522698 0.7753306001
0.7488221126 0.2671265029 0.8508204837
0.6808912927 0.08807885583 0.2516211594
0.8040403028 0.436572705 0.7973427245
0.9177574019 0.1895840439 0.4200297067
0.7932642657 0.2161388569 0.6763172448
0.7631145584 0.356603362 0.3799250479
0.8646463262 0.1248524423 0.6120049663
0.8471790747 0.07868847147 0.4230001071
0.7017149095 0.1449404636 0.4533407736
0.7746083364 0.4920030815 0.6626550441
0.733767225 0.7190504041 0.6424159215
0.8460407926 0.1066217577 0.2940357892
0.6981507133 0.1286057455 0.8037654713
0.728218473 0.6959646608 0.8368911101
0.8343837495 0.730662041 0.7538058231
0.9065065298 0.5593632934 0.7550660072
0.7374928411 0.1836120025 0.204309057
0.8155439595 0.08766219388 0.7432033771
0.6060481115 0.1282087939 0.6306601866
0.877044368 0.773519805 0.5949629782
0.8679138809 0.3688942777 0.2078386589
0.7448493636 0.2851379616 0.07320476378
0.6424998181 0.8914350676 0.6451391548
0.7210090459 0.8804488808 0.7973971435
0.8128623884 0.9283992472 0.6055733176
0.8088631949 0.9052960525 0.7303839848
0.8742878836 0.9069004229 0.6761363587
0.6460876766 0.8872541575 0.2890279536
0.2893646818 0.701078216 0.7422855774
0.2413787718 0.7292895342 0.3728573382
0.2750479921 0.1295764909 0.2915181502
0.2008778063 0.2230518856 0.301854929
0.8675562245 0.7786231901 0.2710558137
0.7338172446 0.740762341 0.1276695404
0.1094590893 0.2324250046 0.3810816327
0.317138957 0.3374740665 0.4418743704
0.09724663907 0.6509264661 0.4186930375
0.1988056843 0.5205503169 0.4607452167
0.112020121 0.3430452683 0.1640736449
0.25931303 0.4688051295 0.2002796405
0.2584655113 0.2608537973 0.1436158881
0.2235240704 0.7224968541 0.1759575965
0.1635668357 0.7325117901 0.5622126409
0.1029159901 0.7686648156 0.2243697427
0.7397210779 0.8359651751 0.2350434999
0.2533393639 0.4075912617 0.7341571287
0.2320787628 0.854497525 0.2457519535
0.1887095537 0.2119046083 0.5273401101
0.1193425293 0.7926398652 0.3208920445
0.2624754845 0.8433634296 0.7361085843
0.1623406019 0.2393360136 0.7273874021
0.2468423576 0.1176476292 0.715818225
0.1422124719 0.7040807877 0.7463927058
0.2931667383 0.253197232 0.8347412491
0.274125294 0.7153029999 0.8648035632
CELLS 1817 7199
2 4 9
2 9 5
2 5 13
2 13 1
2 1 10
2 10 0
2 0 14
2 14 4
2 0 27
2 27 28
2 28 18
2 18 0
2 29 27
2 14 29
2 10 25
2 25 18
2 26 10
2 14 26
2 14 77
2 77 0
2 0 78
2 14 78
2 77 78
2 87 77
2 0 87
2 87 10
2 77 10
2 87 85
2 85 0
2 87 78
2 85 78
2 85 18
2 87 18
2 85 27
2 27 78
2 27 81
2 81 0
2 81 78
2 81 14
2 26 77
2 25 87
2 28 85
2 29 81
2 8 25
2 1 8
2 1 30
2 30 31
2 31 13
2 26 30
2 1 32
2 32 33
2 33 13
2 24 32
2 8 24
2 10 48
2 48 1
2 10 63
2 48 63
2 1 63
2 67 8
2 1 67
2 67 68
2 8 68
2 1 68
2 68 10
2 68 63
2 1 58
2 63 58
2 48 58
2 48 30
2 30 58
2 30 54
2 54 1
2 54 58
2 1 50
2 50 54
2 54 13
2 50 13
2 50 58
2 67 58
2 58 68
2 67 32
2 32 50
2 50 67
2 31 54
2 26 48
2 25 68
2 33 50
2 24 67
2 17 2
2 2 18
2 28 17
2 20 16
2 16 2
2 17 20
2 25 16
2 93 88
2 88 2
2 2 93
2 93 16
2 88 16
2 93 90
2 2 90
2 88 90
2 18 88
2 18 90
2 90 17
2 17 93
2 25 88
2 28 90
2 20 93
2 3 21
2 21 22
2 22 11
2 11 3
2 20 21
2 3 16
2 8 3
2 11 24
2 3 79
2 79 80
2 80 3
2 79 8
2 80 8
2 79 34
2 34 3
2 3 91
2 79 91
2 34 91
2 80 91
2 11 34
2 11 79
2 74 16
2 3 74
2 74 91
2 16 91
2 16 80
2 74 34
2 74 21
2 34 21
2 25 80
2 22 34
2 20 74
2 24 79
2 9 23
2 23 15
2 15 4
2 15 29
2 9 26
2 97 4
2 14 97
2 97 98
2 4 98
2 14 98
2 97 15
2 97 100
2 15 100
2 4 100
2 9 98
2 9 100
2 98 100
2 23 100
2 26 98
2 29 97
2 19 23
2 5 19
2 31 9
2 33 19
2 46 47
2 47 5
2 5 46
2 46 19
2 47 19
2 9 47
2 5 59
2 9 59
2 47 59
2 46 64
2 64 5
2 46 59
2 64 59
2 64 9
2 13 46
2 64 13
2 23 47
2 31 64
2 33 46
2 6 15
2 23 12
2 12 6
2 6 17
2 17 29
2 12 20
2 17 96
2 96 6
2 6 99
2 17 99
2 96 99
2 99 101
2 101 6
2 99 15
2 101 15
2 96 12
2 12 101
2 96 101
2 23 101
2 29 99
2 20 96
2 7 12
2 19 7
2 7 11
2 22 12
2 32 7
2 19 60
2 60 7
2 19 61
2 60 61
2 7 61
2 60 12
2 60 70
2 12 70
2 7 70
2 72 61
2 7 72
2 72 70
2 61 70
2 72 73
2 7 73
2 61 73
2 7 66
2 66 32
2 66 61
2 32 61
2 32 62
2 62 7
2 62 61
2 62 19
2 12 72
2 11 66
2 66 73
2 11 73
2 72 11
2 23 60
2 22 72
2 33 62
2 24 66
2 8 40
2 68 40
2 67 40
2 25 40
2 24 40
2 79 40
2 80 40
2 9 37
2 23 37
2 47 37
2 9 65
2 65 38
2 38 9
2 65 59
2 38 59
2 37 59
2 38 37
2 65 26
2 26 38
2 31 65
2 31 59
2 100 37
2 100 38
2 98 38
2 30 65
2 26 42
2 48 42
2 10 42
2 68 42
2 25 42
2 63 42
2 77 42
2 87 42
2 11 71
2 71 34
2 11 35
2 71 35
2 34 35
2 22 71
2 71 66
2 71 73
2 66 35
2 24 35
2 71 72
2 79 35
2 12 36
2 36 69
2 69 12
2 36 70
2 69 70
2 60 36
2 23 36
2 20 69
2 20 36
2 72 69
2 69 22
2 101 36
2 96 36
2 21 69
2 54 53
2 31 53
2 13 53
2 64 53
2 50 53
2 46 53
2 33 53
2 77 94
2 14 94
2 26 94
2 98 94
2 78 94
2 81 94
2 97 94
2 29 94
2 15 92
2 97 92
2 29 92
2 99 92
2 23 92
2 100 92
2 101 92
2 20 41
2 16 41
2 74 41
2 93 41
2 88 41
2 25 41
2 80 41
2 91 41
2 17 76
2 76 20
2 20 89
2 17 89
2 76 89
2 93 76
2 17 83
2 83 95
2 95 17
2 83 89
2 95 89
2 96 89
2 93 95
2 76 95
2 99 89
2 83 28
2 28 95
2 90 95
2 29 83
2 29 89
2 27 83
2 25 86
2 18 86
2 87 86
2 88 86
2 28 88
2 28 86
2 85 86
2 46 49
2 19 49
2 33 49
2 47 49
2 62 49
2 23 49
2 60 49
2 61 49
2 20 44
2 69 44
2 36 44
2 21 44
2 20 75
2 75 76
2 75 44
2 76 44
2 75 89
2 36 75
2 74 44
2 41 44
2 76 41
2 75 96
2 21 45
2 45 22
2 45 44
2 22 44
2 34 45
2 74 45
2 71 69
2 71 44
2 45 71
2 60 56
2 56 23
2 60 57
2 56 57
2 23 57
2 36 57
2 56 49
2 37 56
2 37 49
2 57 37
2 37 36
2 37 75
2 75 23
2 75 92
2 37 92
2 75 101
2 32 45
2 45 24
2 24 52
2 32 52
2 45 52
2 66 45
2 52 40
2 45 40
2 67 52
2 45 35
2 79 45
2 43 42
2 25 43
2 43 52
2 42 52
2 25 52
2 41 43
2 41 40
2 43 40
2 52 68
2 43 86
2 86 42
2 86 41
2 30 42
2 65 55
2 30 55
2 26 55
2 55 42
2 65 39
2 26 39
2 38 39
2 55 39
2 42 39
2 26 82
2 82 94
2 82 39
2 94 39
2 77 82
2 82 42
2 94 38
2 27 82
2 82 81
2 82 78
2 28 84
2 83 84
2 27 84
2 86 27
2 86 78
2 86 82
2 86 84
2 82 84
2 29 84
2 84 81
2 28 76
2 76 83
2 76 84
2 86 76
2 88 76
2 95 88
2 92 84
2 92 89
2 84 89
2 92 94
2 94 84
2 55 54
2 55 58
2 55 48
2 31 55
2 55 53
2 31 51
2 55 51
2 65 51
2 51 53
2 51 59
2 64 51
2 50 52
2 33 52
2 33 56
2 56 32
2 56 52
2 56 45
2 66 57
2 45 57
2 32 57
2 62 56
2 56 61
2 57 61
2 50 51
2 51 33
2 51 52
2 51 56
2 51 46
2 51 49
2 91 45
2 43 36
2 37 43
2 43 57
2 69 57
2 44 57
2 43 44
2 70 57
2 43 75
2 37 52
2 52 55
2 55 37
2 37 39
2 52 39
2 56 43
2 51 37
2 37 65
2 43 39
2 51 39
2 51 47
2 43 92
2 82 37
2 43 82
2 82 92
2 92 39
2 38 92
2 38 82
2 38 97
2 43 45
2 41 45
2 91 40
2 76 43
2 55 63
2 63 52
2 78 42
2 43 84
2 75 84
2 71 57
2 50 55
2 52 58
2 61 71
2 72 57
2 99 75
3 0 14 78
3 14 77 78
3 0 78 77
3 0 77 14
3 87 77 10
3 77 0 10
3 87 10 0
3 87 0 77
3 0 87 78
3 87 85 78
3 0 78 85
3 0 85 87
3 77 87 78
3 85 87 18
3 87 0 18
3 85 18 0
3 85 27 78
3 0 78 27
3 0 27 85
3 27 81 78
3 81 0 78
3 27 0 81
3 81 14 78
3 0 14 81
3 26 10 77
3 14 26 77
3 10 25 87
3 25 18 87
3 28 27 85
3 18 28 85
3 27 29 81
3 29 14 81
3 10 48 63
3 48 1 63
3 10 63 1
3 10 1 48
3 67 8 68
3 8 1 68
3 67 68 1
3 67 1 8
3 1 68 63
3 10 63 68
3 10 68 1
3 1 63 58
3 63 48 58
3 1 58 48
3 30 1 58
3 30 58 48
3 30 48 1
3 30 54 58
3 54 1 58
3 30 1 54
3 54 1 13
3 1 50 13
3 54 13 50
3 54 50 1
3 50 1 58
3 50 58 54
3 67 58 1
3 68 1 58
3 68 58 67
3 63 58 68
3 67 32 1
3 32 50 1
3 67 1 50
3 67 50 32
3 67 58 50
3 30 31 54
3 31 13 54
3 26 30 48
3 10 26 48
3 8 25 68
3 25 10 68
3 33 32 50
3 13 33 50
3 32 24 67
3 24 8 67
3 93 88 16
3 88 2 16
3 93 16 2
3 93 2 88
3 93 2 90
3 2 88 90
3 93 90 88
3 2 18 90
3 18 88 90
3 2 88 18
3 90 17 2
3 17 93 2
3 90 93 17
3 18 25 88
3 25 16 88
3 17 28 90
3 28 18 90
3 16 20 93
3 20 17 93
3 3 79 8
3 79 80 8
3 3 8 80
3 3 80 79
3 3 79 91
3 79 34 91
3 3 91 34
3 3 34 79
3 3 80 91
3 80 79 91
3 3 11 79
3 34 79 11
3 34 11 3
3 74 16 91
3 16 3 91
3 74 91 3
3 74 3 16
3 16 80 91
3 16 3 80
3 3 74 21
3 74 34 21
3 3 21 34
3 3 34 74
3 34 74 91
3 16 25 80
3 25 8 80
3 22 21 34
3 11 22 34
3 21 20 74
3 20 16 74
3 24 11 79
3 8 24 79
3 97 4 98
3 4 14 98
3 97 98 14
3 97 14 4
3 97 15 100
3 15 4 100
3 97 100 4
3 97 4 15
3 9 98 100
3 98 4 100
3 9 100 4
3 9 4 98
3 98 97 100
3 15 23 100
3 23 9 100
3 26 14 98
3 9 26 98
3 14 29 97
3 29 15 97
3 46 47 19
3 47 5 19
3 46 19 5
3 46 5 47
3 5 9 59
3 9 47 59
3 5 59 47
3 5 47 9
3 46 64 59
3 64 5 59
3 46 59 5
3 46 5 64
3 46 59 47
3 64 9 59
3 5 9 64
3 13 46 5
3 13 5 64
3 13 64 46
3 9 23 47
3 23 19 47
3 13 31 64
3 31 9 64
3 19 33 46
3 33 13 46
3 6 17 99
3 17 96 99
3 6 99 96
3 6 96 17
3 99 101 15
3 101 6 15
3 99 15 6
3 99 6 101
3 12 6 101
3 6 96 101
3 12 101 96
3 12 96 6
3 101 99 96
3 23 15 101
3 12 23 101
3 15 29 99
3 29 17 99
3 17 20 96
3 20 12 96
3 19 60 61
3 60 7 61
3 19 61 7
3 19 7 60
3 60 12 70
3 12 7 70
3 60 70 7
3 60 7 12
3 72 61 70
3 61 7 70
3 72 70 7
3 72 7 61
3 72 7 73
3 7 61 73
3 72 73 61
3 60 70 61
3 7 66 61
3 66 32 61
3 7 61 32
3 7 32 66
3 32 62 61
3 62 7 61
3 32 7 62
3 62 19 61
3 62 7 19
3 12 72 70
3 12 7 72
3 66 7 73
3 7 11 73
3 66 73 11
3 66 11 7
3 66 61 73
3 72 11 73
3 72 7 11
3 23 12 60
3 19 23 60
3 12 22 72
3 22 11 72
3 33 19 62
3 32 33 62
3 11 24 66
3 24 32 66
[...]
POINT_DATA 102
SCALARS GLOBAL_ID int 1
LOOKUP_TABLE default
0 
1 
2 
3 
4 
5 
6 
7 
8 
9 
10 
11 
12 
13 
14 
15 
16 
17 
18 
19 
20 
21 
22 
23 
24 
25 
26 
27 
28 
29 
30 
31 
32 
33 
34 
35 
36 
37 
38 
39 
40 
41 
42 
43 
44 
45 
46 
47 
48 
49 
50 
51 
52 
53 
54 
55 
56 
57 
58 
59 
60 
61 
62 
63 
64 
65 
66 
67 
68 
69 
70 
71 
72 
73 
74 
75 
76 
77 
78 
79 
80 
81 
82 
83 
84 
85 
86 
87 
88 
89 
90 
91 
92 
93 
94 
95 
96 
97 
98 
99 
100 
101 
SCALARS ID-NODES int 1
LOOKUP_TABLE default
0 
1 
2 
3 
4 
5 
6 
7 
8 
9 
10 
11 
12 
13 
14 
15 
16 
17 
18 
19 
20 
21 
22 
23 
24 
25 
26 
27 
28 
29 
30 
31 
32 
33 
34 
35 
36 
37 
38 
39 
40 
41 
42 
43 
44 
45 
46 
47 
48 
49 
50 
51 
52 
53 
54 
55 
56 
57 
58 
59 
60 
61 
62 
63 
64 
65 
66 
67 
68 
69 
70 
71 
72 
73 
74 
75 
76 
77 
78 
79 
80 
81 
82 
83 
84 
85 
86 
87 
88 
89 
90 
91 
92 
93 
94 
95 
96 
97 
98 
99 
100 
101 
SCALARS FLAGS int 1
LOOKUP_TABLE default
101 
101 
101 
101 
202 
202 
202 
202 
0 
0 
0 
0 
0 
0 
0 
0 
0 
0 
0 
0 
0 
0 
0 
0 
0 
0 
0 
0 
0 
0 
0 
0 
0 
0 
0 
0 
0 
0 
0 
0 
0 
0 
0 
0 
0 
0 
0 
0 
0 
0 
0 
0 
0 
0 
0 
0 
0 
0 
0 
0 
0 
0 
0 
0 
0 
0 
0 
0 
0 
0 
0 
0 
0 
0 
0 
0 
0 
0 
0 
0 
0 
0 
0 
0 
0 
0 
0 
0 
0 
0 
0 
0 
0 
0 
0 
0 
0 
0 
0 
0 
0 
0 
CELL_DATA 1817
SCALARS GLOBAL_ID int 1
LOOKUP_TABLE default
0 
1 
2 
3 
4 
5 
6 
7 
8 
9 
10 
11 
12 
13 
14 
15 
16 
17 
18 
19 
20 
21 
22 
23 
24 
25 
26 
27 
28 
29 
30 
31 
32 
33 
34 
35 
36 
37 
38 
39 
40 
41 
42 
43 
44 
45 
46 
47 
48 
49 
50 
51 
52 
53 
54 
55 
56 
57 
58 
59 
60 
61 
62 
63 
64 
65 
66 
67 
68 
69 
70 
71 
72 
73 
74 
75 
76 
77 
78 
79 
80 
81 
82 
83 
84 
85 
86 
87 
88 
89 
90 
91 
92 
93 
94 
95 
96 
97 
98 
99 
100 
101 
102 
103 
104 
105 
106 
107 
108 
109 
110 
111 
112 
113 
114 
115 
116 
117 
118 
119 
120 
121 
122 
123 
124 
125 
126 
127 
128 
129 
130 
131 
132 
133 
134 
135 
136 
137 
138 
139 
140 
141 
142 
143 
144 
145 
146 
147 
148 
149 
150 
151 
152 
153 
154 
155 
156 
157 
158 
159 
160 
161 
162 
163 
164 
165 
166 
167 
168 
169 
170 
171 
172 
173 
174 
175 
176 
177 
178 
179 
180 
181 
182 
183 
184 
185 
186 
187 
188 
189 
190 
191 
192 
193 
194 
195 
196 
197 
198 
199 
200 
201 
202 
203 
204 
205 
206 
207 
208 
209 
210 
211 
212 
213 
214 
215 
216 
217 
218 
219 
220 
221 
222 
223 
224 
225 
226 
227 
228 
229 
230 
231 
232 
233 
234 
235 
236 
237 
238 
239 
240 
241 
242 
243 
244 
245 
246 
247 
248 
249 
250 
251 
252 
253 
254 
255 
256 
257 
258 
259 
260 
261 
262 
263 
264 
265 
266 
267 
268 
269 
270 
271 
272 
273 
274 
275 
276 
277 
278 
279 
280 
281 
282 
283 
284 
285 
286 
287 
288 
289 
290 
291 
292 
293 
294 
295 
296 
297 
298 
299 
300 
301 
302 
303 
304 
305 
306 
307 
308 
309 
310 
311 
312 
313 
314 
315 
316 
317 
318 
319 
320 
321 
322 
323 
324 
325 
326 
327 
328 
329 
330 
331 
332 
333 
334 
335 
336 
337 
338 
339 
340 
341 
342 
343 
344 
345 
346 
347 
348 
349 
350 
351 
352 
353 
354 
355 
356 
357 
358 
359 
360 
361 
362 
363 
364 
365 
366 
367 
368 
369 
370 
371 
372 
373 
374 
375 
376 
377 
378 
379 
380 
381 
382 
383 
384 
385 
386 
387 
388 
389 
390 
391 
392 
393 
394 
395 
396 
397 
398 
399 
400 
401 
402 
403 
404 
405 
406 
407 
408 
409 
410 
411 
412 
413 
414 
415 
416 
417 
418 
419 
420 
421 
422 
423 
424 
425 
426 
427 
428 
429 
430 
431 
432 
433 
434 
435 
436 
437 
438 
439 
440 
441 
442 
443 
444 
445 
446 
447 
448 
449 
450 
451 
452 
453 
454 
455 
456 
457 
458 
459 
460 
461 
462 
463 
464 
465 
466 
467 
468 
469 
470 
471 
472 
473 
474 
475 
476 
477 
478 
479 
480 
481 
482 
483 
484 
485 
486 
487 
488 
489 
490 
491 
492 
493 
494 
495 
496 
497 
498 
499 
500 
501 
502 
503 
504 
505 
506 
507 
508 
509 
510 
511 
512 
513 
514 
515 
516 
517 
518 
519 
520 
521 
522 
523 
524 
525 
526 
527 
528 
529 
530 
531 
532 
533 
534 
535 
536 
537 
538 
539 
540 
541 
542 
543 
544 
545 
0 
1 
2 
3 
4 
5 
6 
7 
8 
9 
10 
11 
12 
13 
14 
15 
16 
17 
18 
19 
20 
21 
22 
23 
24 
25 
26 
27 
28 
29 
30 
31 
32 
33 
34 
35 
36 
37 
38 
39 
40 
41 
42 
43 
44 
45 
46 
47 
48 
49 
50 
51 
52 
53 
54 
55 
56 
57 
58 
59 
60 
61 
62 
63 
64 
65 
66 
67 
68 
69 
70 
71 
72 
73 
74 
75 
76 
77 
78 
79 
80 
81 
82 
83 
84 
85 
86 
87 
88 
89 
90 
91 
92 
93 
94 
95 
96 
97 
98 
99 
100 
101 
102 
103 
104 
105 
106 
107 
108 
109 
110 
111 
112 
113 
114 
115 
116 
117 
118 
119 
120 
121 
122 
123 
124 
125 
126 
127 
128 
129 
130 
131 
132 
133 
134 
135 
136 
137 
138 
139 
140 
141 
142 
143 
144 
145 
146 
147 
148 
149 
150 
151 
152 
153 
154 
155 
156 
157 
158 
159 
160 
161 
162 
163 
164 
165 
166 
167 
168 
169 
170 
171 
172 
173 
174 
175 
176 
177 
178 
179 
180 
181 
182 
183 
184 
185 
186 
187 
188 
189 
190 
191 
192 
193 
194 
195 
196 
197 
198 
199 
200 
201 
202 
203 
204 
205 
206 
207 
208 
209 
210 
211 
212 
213 
214 
215 
216 
217 
218 
219 
220 
221 
222 
223 
224 
225 
226 
227 
228 
229 
230 
231 
232 
233 
234 
235 
236 
237 
238 
239 
240 
241 
242 
243 
244 
245 
246 
247 
248 
249 
250 
251 
252 
253 
254 
255 
256 
257 
258 
259 
260 
261 
262 
263 
264 
265 
266 
267 
268 
269 
270 
271 
272 
273 
274 
275 
276 
277 
278 
279 
280 
281 
282 
283 
284 
285 
286 
287 
288 
289 
290 
291 
292 
293 
294 
295 
296 
297 
298 
299 
300 
301 
302 
303 
304 
305 
306 
307 
308 
309 
310 
311 
312 
313 
314 
315 
316 
317 
318 
319 
320 
321 
322 
323 
324 
325 
326 
327 
328 
329 
330 
331 
332 
333 
334 
335 
336 
337 
338 
339 
340 
341 
342 
343 
344 
345 
346 
347 
348 
349 
350 
351 
352 
353 
354 
355 
356 
357 
358 
359 
360 
361 
362 
363 
364 
365 
366 
367 
368 
369 
370 
371 
372 
373 
374 
375 
376 
377 
378 
379 
380 
381 
382 
383 
384 
385 
386 
387 
388 
389 
390 
391 
392 
393 
394 
395 
396 
397 
398 
399 
400 
401 
402 
403 
404 
405 
406 
407 
408 
409 
410 
411 
412 
413 
414 
415 
416 
417 
418 
419 
420 
421 
422 
423 
424 
425 
426 
427 
428 
429 
430 
431 
432 
433 
434 
435 
436 
437 
438 
439 
440 
441 
442 
443 
444 
445 
446 
447 
448 
449 
450 
451 
452 
453 
454 
455 
456 
457 
458 
459 
460 
461 
462 
463 
464 
465 
466 
467 
468 
469 
470 
471 
472 
473 
474 
475 
476 
477 
478 
479 
480 
481 
482 
483 
484 
485 
486 
487 
488 
489 
490 
491 
492 
493 
494 
495 
496 
497 
498 
499 
500 
501 
502 
503 
504 
505 
506 
507 
508 
509 
510 
511 
512 
513 
514 
515 
516 
517 
518 
519 
520 
521 
522 
523 
524 
525 
526 
527 
528 
529 
530 
531 
532 
533 
534 
535 
536 
537 
538 
539 
540 
541 
542 
543 
544 
545 
546 
547 
548 
549 
550 
551 
552 
553 
554 
555 
556 
557 
558 
559 
560 
561 
562 
563 
564 
565 
566 
567 
568 
569 
570 
571 
572 
573 
574 
575 
576 
577 
578 
579 
580 
581 
582 
583 
584 
585 
586 
587 
588 
589 
590 
591 
592 
593 
594 
595 
596 
597 
598 
599 
600 
601 
602 
603 
604 
605 
606 
607 
608 
609 
610 
611 
612 
613 
614 
615 
616 
617 
618 
619 
620 
621 
622 
623 
624 
625 
626 
627 
628 
629 
630 
631 
632 
633 
634 
635 
636 
637 
638 
639 
640 
641 
642 
643 
644 
645 
646 
647 
648 
649 
650 
651 
652 
653 
654 
655 
656 
657 
658 
659 
660 
661 
662 
663 
664 
665 
666 
667 
668 
669 
670 
671 
672 
673 
674 
675 
676 
677 
678 
679 
680 
681 
682 
683 
684 
685 
686 
687 
688 
689 
690 
691 
692 
693 
694 
695 
696 
697 
698 
699 
700 
701 
702 
703 
704 
705 
706 
707 
708 
709 
710 
711 
712 
713 
714 
715 
716 
717 
718 
719 
720 
721 
722 
723 
724 
725 
726 
727 
728 
729 
730 
731 
732 
733 
734 
735 
736 
737 
738 
739 
740 
741 
742 
743 
744 
745 
746 
747 
748 
749 
750 
751 
752 
753 
754 
755 
756 
757 
758 
759 
760 
761 
762 
763 
764 
765 
766 
767 
768 
769 
770 
771 
772 
773 
774 
775 
776 
777 
778 
779 
780 
781 
782 
783 
784 
785 
786 
787 
788 
789 
790 
791 
792 
793 
794 
795 
796 
797 
798 
799 
800 
801 
802 
803 
804 
805 
806 
807 
808 
809 
810 
811 
812 
813 
814 
815 
816 
817 
818 
819 
820 
821 
822 
823 
824 
825 
826 
827 
828 
829 
830 
831 
832 
833 
834 
835 
836 
837 
838 
839 
840 
841 
842 
843 
844 
845 
846 
847 
848 
849 
850 
851 
852 
853 
854 
855 
856 
857 
0 
1 
2 
3 
4 
5 
6 
7 
8 
9 
10 
11 
12 
13 
14 
15 
16 
17 
18 
19 
20 
21 
22 
23 
24 
25 
26 
27 
28 
29 
30 
31 
32 
33 
34 
35 
36 
37 
38 
39 
40 
41 
42 
43 
44 
45 
46 
47 
48 
49 
50 
51 
52 
53 
54 
55 
56 
57 
58 
59 
60 
61 
62 
63 
64 
65 
66 
67 
68 
69 
70 
71 
72 
73 
74 
75 
76 
77 
78 
79 
80 
81 
82 
83 
84 
85 
86 
87 
88 
89 
90 
91 
92 
93 
94 
95 
96 
97 
98 
99 
100 
101 
102 
103 
104 
105 
106 
107 
108 
109 
110 
111 
112 
113 
114 
115 
116 
117 
118 
119 
120 
121 
122 
123 
124 
125 
126 
127 
128 
129 
130 
131 
132 
133 
134 
135 
136 
137 
138 
139 
140 
141 
142 
143 
144 
145 
146 
147 
148 
149 
150 
151 
152 
153 
154 
155 
156 
157 
158 
159 
160 
161 
162 
163 
164 
165 
166 
167 
168 
169 
170 
171 
172 
173 
174 
175 
176 
177 
178 
179 
180 
181 
182 
183 
184 
185 
186 
187 
188 
189 
190 
191 
192 
193 
194 
195 
196 
197 
198 
199 
200 
201 
202 
203 
204 
205 
206 
207 
208 
209 
210 
211 
212 
213 
214 
215 
216 
217 
218 
219 
220 
221 
222 
223 
224 
225 
226 
227 
228 
229 
230 
231 
232 
233 
234 
235 
236 
237 
238 
239 
240 
241 
242 
243 
244 
245 
246 
247 
248 
249 
250 
251 
252 
253 
254 
255 
256 
257 
258 
259 
260 
261 
262 
263 
264 
265 
266 
267 
268 
269 
270 
271 
272 
273 
274 
275 
276 
277 
278 
279 
280 
281 
282 
283 
284 
285 
286 
287 
288 
289 
290 
291 
292 
293 
294 
295 
296 
297 
298 
299 
300 
301 
302 
303 
304 
305 
306 
307 
308 
309 
310 
311 
312 
313 
314 
315 
316 
317 
318 
319 
320 
321 
322 
323 
324 
325 
326 
327 
328 
329 
330 
331 
332 
333 
334 
335 
336 
337 
338 
339 
340 
341 
342 
343 
344 
345 
346 
347 
348 
349 
350 
351 
352 
353 
354 
355 
356 
357 
358 
359 
360 
361 
362 
363 
364 
365 
366 
367 
368 
369 
370 
371 
372 
373 
374 
375 
376 
377 
378 
379 
380 
381 
382 
383 
384 
385 
386 
387 
388 
389 
390 
391 
392 
393 
394 
395 
396 
397 
398 
399 
400 
401 
402 
403 
404 
405 
406 
407 
408 
409 
410 
411 
412 
SCALARS ID-EDGES int 1
LOOKUP_TABLE default
0 
1 
2 
3 
4 
5 
6 
7 
8 
9 
10 
11 
12 
13 
14 
15 
16 
17 
18 
19 
20 
21 
22 
23 
24 
25 
26 
27 
28 
29 
30 
31 
32 
33 
34 
35 
36 
37 
38 
39 
40 
41 
42 
43 
44 
45 
46 
47 
48 
49 
50 
51 
52 
53 
54 
55 
56 
57 
58 
59 
60 
61 
62 
63 
64 
65 
66 
67 
68 
69 
70 
71 
72 
73 
74 
75 
76 
77 
78 
79 
80 
81 
82 
83 
84 
85 
86 
87 
88 
89 
90 
91 
92 
93 
94 
95 
96 
97 
98 
99 
100 
101 
102 
103 
104 
105 
106 
107 
108 
109 
110 
111 
112 
113 
114 
115 
116 
117 
118 
119 
120 
121 
122 
123 
124 
125 
126 
127 
128 
129 
130 
131 
132 
133 
134 
135 
136 
137 
138 
139 
140 
141 
142 
143 
144 
145 
146 
147 
148 
149 
150 
151 
152 
153 
154 
155 
156 
157 
158 
159 
160 
161 
162 
163 
164 
165 
166 
167 
168 
169 
170 
171 
172 
173 
174 
175 
176 
177 
178 
179 
180 
181 
182 
183 
184 
185 
186 
187 
188 
189 
190 
191 
192 
193 
194 
195 
196 
197 
198 
199 
200 
201 
202 
203 
204 
205 
206 
207 
208 
209 
210 
211 
212 
213 
214 
215 
216 
217 
218 
219 
220 
221 
222 
223 
224 
225 
226 
227 
228 
229 
230 
231 
232 
233 
234 
235 
236 
237 
238 
239 
240 
241 
242 
243 
244 
245 
246 
247 
248 
249 
250 
251 
252 
253 
254 
255 
256 
257 
258 
259 
260 
261 
262 
263 
264 
265 
266 
267 
268 
269 
270 
271 
272 
273 
274 
275 
276 
277 
278 
279 
280 
281 
282 
283 
284 
285 
286 
287 
288 
289 
290 
291 
292 
293 
294 
295 
296 
297 
298 
299 
300 
301 
302 
303 
304 
305 
306 
307 
308 
309 
310 
311 
312 
313 
314 
315 
316 
317 
318 
319 
320 
321 
322 
323 
324 
325 
326 
327 
328 
329 
330 
331 
332 
333 
334 
335 
336 
337 
338 
339 
340 
341 
342 
343 
344 
345 
346 
347 
348 
349 
350 
351 
352 
353 
354 
355 
356 
357 
358 
359 
360 
361 
362 
363 
364 
365 
366 
367 
368 
369 
370 
371 
372 
373 
374 
375 
376 
377 
378 
379 
380 
381 
382 
383 
384 
385 
386 
387 
388 
389 
390 
391 
392 
393 
394 
395 
396 
397 
398 
399 
400 
401 
402 
403 
404 
405 
406 
407 
408 
409 
410 
411 
412 
413 
414 
415 
416 
417 
418 
419 
420 
421 
422 
423 
424 
425 
426 
427 
428 
429 
430 
431 
432 
433 
434 
435 
436 
437 
438 
439 
440 
441 
442 
443 
444 
445 
446 
447 
448 
449 
450 
451 
452 
453 
454 
455 
456 
457 
458 
459 
460 
461 
462 
463 
464 
465 
466 
467 
468 
469 
470 
471 
472 
473 
474 
475 
476 
477 
478 
479 
480 
481 
482 
483 
484 
485 
486 
487 
488 
489 
490 
491 
492 
493 
494 
495 
496 
497 
498 
499 
500 
501 
502 
503 
504 
505 
506 
507 
508 
509 
510 
511 
512 
513 
514 
515 
516 
517 
518 
519 
520 
521 
522 
523 
524 
525 
526 
527 
528 
529 
530 
531 
532 
533 
534 
535 
536 
537 
538 
539 
540 
541 
542 
543 
544 
545 
0 
0 
0 
0 
0 
0 
0 
0 
0 
0 
0 
0 
0 
0 
0 
0 
0 
0 
0 
0 
0 
0 
0 
0 
0 
0 
0 
0 
0 
0 
0 
0 
0 
0 
0 
0 
0 
0 
0 
0 
0 
0 
0 
0 
0 
0 
0 
0 
0 
0 
0 
0 
0 
0 
0 
0 
0 
0 
0 
0 
0 
0 
0 
0 
0 
0 
0 
0 
0 
0 
0 
0 
0 
0 
0 
0 
0 
0 
0 
0 
0 
0 
0 
0 
0 
0 
0 
0 
0 
0 
0 
0 
0 
0 
0 
0 
0 
0 
0 
0 
0 
0 
0 
0 
0 
0 
0 
0 
0 
0 
0 
0 
0 
0 
0 
0 
0 
0 
0 
0 
0 
0 
0 
0 
0 
0 
0 
0 
0 
0 
0 
0 
0 
0 
0 
0 
0 
0 
0 
0 
0 
0 
0 
0 
0 
0 
0 
0 
0 
0 
0 
0 
0 
0 
0 
0 
0 
0 
0 
0 
0 
0 
0 
0 
0 
0 
0 
0 
0 
0 
0 
0 
0 
0 
0 
0 
0 
0 
0 
0 
0 
0 
0 
0 
0 
0 
0 
0 
0 
0 
0 
0 
0 
0 
0 
0 
0 
0 
0 
0 
0 
0 
0 
0 
0 
0 
0 
0 
0 
0 
0 
0 
0 
0 
0 
0 
0 
0 
0 
0 
0 
0 
0 
0 
0 
0 
0 
0 
0 
0 
0 
0 
0 
0 
0 
0 
0 
0 
0 
0 
0 
0 
0 
0 
0 
0 
0 
0 
0 
0 
0 
0 
0 
0 
0 
0 
0 
0 
0 
0 
0 
0 
0 
0 
0 
0 
0 
0 
0 
0 
0 
0 
0 
0 
0 
0 
0 
0 
0 
0 
0 
0 
0 
0 
0 
0 
0 
0 
0 
0 
0 
0 
0 
0 
0 
0 
0 
0 
0 
0 
0 
0 
0 
0 
0 
0 
0 
0 
0 
0 
0 
0 
0 
0 
0 
0 
0 
0 
0 
0 
0 
0 
0 
0 
0 
0 
0 
0 
0 
0 
0 
0 
0 
0 
0 
0 
0 
0 
0 
0 
0 
0 
0 
0 
0 
0 
0 
0 
0 
0 
0 
0 
0 
0 
0 
0 
0 
0 
0 
0 
0 
0 
0 
0 
0 
0 
0 
0 
0 
0 
0 
0 
0 
0 
0 
0 
0 
0 
0 
0 
0 
0 
0 
0 
0 
0 
0 
0 
0 
0 
0 
0 
0 
0 
0 
0 
0 
0 
0 
0 
0 
0 
0 
0 
0 
0 
0 
0 
0 
0 
0 
0 
0 
0 
0 
0 
0 
0 
0 
0 
0 
0 
0 
0 
0 
0 
0 
0 
0 
0 
0 
0 
0 
0 
0 
0 
0 
0 
0 
0 
0 
0 
0 
0 
0 
0 
0 
0 
0 
0 
0 
0 
0 
0 
0 
0 
0 
0 
0 
0 
0 
0 
0 
0 
0 
0 
0 
0 
0 
0 
0 
0 
0 
0 
0 
0 
0 
0 
0 
0 
0 
0 
0 
0 
0 
0 
0 
0 
0 
0 
0 
0 
0 
0 
0 
0 
0 
0 
0 
0 
0 
0 
0 
0 
0 
0 
0 
0 
0 
0 
0 
0 
0 
0 
0 
0 
0 
0 
0 
0 
0 
0 
0 
0 
0 
0 
0 
0 
0 
0 
0 
0 
0 
0 
0 
0 
0 
0 
0 
0 
0 
0 
0 
0 
0 
0 
0 
0 
0 
0 
0 
0 
0 
0 
0 
0 
0 
0 
0 
0 
0 
0 
0 
0 
0 
0 
0 
0 
0 
0 
0 
0 
0 
0 
0 
0 
0 
0 
0 
0 
0 
0 
0 
0 
0 
0 
0 
0 
0 
0 
0 
0 
0 
0 
0 
0 
0 
0 
0 
0 
0 
0 
0 
0 
0 
0 
0 
0 
0 
0 
0 
0 
0 
0 
0 
0 
0 
0 
0 
0 
0 
0 
0 
0 
0 
0 
0 
0 
0 
0 
0 
0 
0 
0 
0 
0 
0 
0 
0 
0 
0 
0 
0 
0 
0 
0 
0 
0 
0 
0 
0 
0 
0 
0 
0 
0 
0 
0 
0 
0 
0 
0 
0 
0 
0 
0 
0 
0 
0 
0 
0 
0 
0 
0 
0 
0 
0 
0 
0 
0 
0 
0 
0 
0 
0 
0 
0 
0 
0 
0 
0 
0 
0 
0 
0 
0 
0 
0 
0 
0 
0 
0 
0 
0 
0 
0 
0 
0 
0 
0 
0 
0 
0 
0 
0 
0 
0 
0 
0 
0 
0 
0 
0 
0 
0 
0 
0 
0 
0 
0 
0 
0 
0 
0 
0 
0 
0 
0 
0 
0 
0 
0 
0 
0 
0 
0 
0 
0 
0 
0 
0 
0 
0 
0 
0 
0 
0 
0 
0 
0 
0 
0 
0 
0 
0 
0 
0 
0 
0 
0 
0 
0 
0 
0 
0 
0 
0 
0 
0 
0 
0 
0 
0 
0 
0 
0 
0 
0 
0 
0 
0 
0 
0 
0 
0 
0 
0 
0 
0 
0 
0 
0 
0 
0 
0 
0 
0 
0 
0 
0 
0 
0 
0 
0 
0 
0 
0 
0 
0 
0 
0 
0 
0 
0 
0 
0 
0 
0 
0 
0 
0 
0 
0 
0 
0 
0 
0 
0 
0 
0 
0 
0 
0 
0 
0 
0 
0 
0 
0 
0 
0 
0 
0 
0 
0 
0 
0 
0 
0 
0 
0 
0 
0 
0 
0 
0 
0 
0 
0 
0 
0 
0 
0 
0 
0 
0 
0 
0 
0 
0 
0 
0 
0 
0 
0 
0 
0 
0 
0 
0 
0 
0 
0 
0 
0 
0 
0 
0 
0 
0 
0 
0 
0 
0 
0 
0 
0 
0 
0 
0 
0 
0 
0 
0 
0 
0 
0 
0 
0 
0 
0 
0 
0 
0 
0 
0 
0 
0 
0 
0 
0 
0 
0 
0 
0 
0 
0 
0 
0 
0 
0 
0 
0 
0 
0 
0 
0 
0 
0 
0 
0 
0 
0 
0 
0 
0 
0 
0 
0 
0 
0 
0 
0 
0 
0 
0 
0 
0 
0 
0 
0 
0 
0 
0 
0 
0 
0 
0 
0 
0 
0 
0 
0 
0 
0 
0 
0 
0 
0 
0 
0 
0 
0 
0 
0 
0 
0 
0 
0 
0 
0 
0 
0 
0 
0 
0 
0 
0 
0 
0 
0 
0 
0 
0 
0 
0 
0 
0 
0 
0 
0 
0 
0 
0 
0 
0 
0 
0 
0 
0 
0 
0 
0 
0 
0 
0 
0 
0 
0 
0 
0 
0 
0 
0 
0 
0 
0 
0 
0 
0 
0 
0 
0 
0 
0 
0 
0 
0 
0 
0 
0 
0 
0 
0 
0 
0 
0 
0 
0 
0 
0 
0 
0 
0 
0 
0 
0 
0 
0 
0 
0 
0 
0 
0 
0 
0 
0 
0 
0 
0 
0 
0 
0 
0 
0 
0 
0 
0 
0 
0 
0 
0 
0 
0 
0 
0 
0 
0 
0 
0 
0 
0 
0 
0 
0 
0 
0 
0 
0 
0 
0 
0 
0 
0 
0 
0 
0 
0 
0 
0 
0 
0 
0 
0 
0 
0 
0 
0 
0 
0 
0 
0 
0 
0 
0 
0 
0 
0 
0 
0 
0 
0 
0 
0 
0 
0 
0 
0 
0 
0 
0 
0 
0 
0 
0 
0 
0 
0 
0 
0 
0 
0 
0 
0 
0 
0 
0 
0 
0 
0 
0 
0 
0 
0 
0 
0 
0 
0 
0 
0 
0 
0 
0 
0 
0 
0 
0 
0 
0 
0 
0 
0 
0 
0 
0 
0 
0 
0 
0 
0 
0 
0 
0 
0 
0 
0 
0 
0 
0 
0 
0 
0 
0 
0 
0 
0 
0 
0 
0 
0 
0 
0 
0 
0 
0 
0 
0 
0 
0 
0 
0 
0 
0 
0 
0 
0 
0 
0 
0 
0 
0 
0 
0 
0 
0 
0 
0 
0 
0 
0 
0 
0 
0 
0 
0 
0 
0 
0 
0 
0 
0 
SCALARS ID-FACES int 1
LOOKUP_TABLE default
0 
0 
0 
0 
0 
0 
0 
0 
0 
0 
0 
0 
0 
0 
0 
0 
0 
0 
0 
0 
0 
0 
0 
0 
0 
0 
0 
0 
0 
0 
0 
0 
0 
0 
0 
0 
0 
0 
0 
0 
0 
0 
0 
0 
0 
0 
0 
0 
0 
0 
0 
0 
0 
0 
0 
0 
0 
0 
0 
0 
0 
0 
0 
0 
0 
0 
0 
0 
0 
0 
0 
0 
0 
0 
0 
0 
0 
0 
0 
0 
0 
0 
0 
0 
0 
0 
0 
0 
0 
0 
0 
0 
0 
0 
0 
0 
0 
0 
0 
0 
0 
0 
0 
0 
0 
0 
0 
0 
0 
0 
0 
0 
0 
0 
0 
0 
0 
0 
0 
0 
0 
0 
0 
0 
0 
0 
0 
0 
0 
0 
0 
0 
0 
0 
0 
0 
0 
0 
0 
0 
0 
0 
0 
0 
0 
0 
0 
0 
0 
0 
0 
0 
0 
0 
0 
0 
0 
0 
0 
0 
0 
0 
0 
0 
0 
0 
0 
0 
0 
0 
0 
0 
0 
0 
0 
0 
0 
0 
0 
0 
0 
0 
0 
0 
0 
0 
0 
0 
0 
0 
0 
0 
0 
0 
0 
0 
0 
0 
0 
0 
0 
0 
0 
0 
0 
0 
0 
0 
0 
0 
0 
0 
0 
0 
0 
0 
0 
0 
0 
0 
0 
0 
0 
0 
0 
0 
0 
0 
0 
0 
0 
0 
0 
0 
0 
0 
0 
0 
0 
0 
0 
0 
0 
0 
0 
0 
0 
0 
0 
0 
0 
0 
0 
0 
0 
0 
0 
0 
0 
0 
0 
0 
0 
0 
0 
0 
0 
0 
0 
0 
0 
0 
0 
0 
0 
0 
0 
0 
0 
0 
0 
0 
0 
0 
0 
0 
0 
0 
0 
0 
0 
0 
0 
0 
0 
0 
0 
0 
0 
0 
0 
0 
0 
0 
0 
0 
0 
0 
0 
0 
0 
0 
0 
0 
0 
0 
0 
0 
0 
0 
0 
0 
0 
0 
0 
0 
0 
0 
0 
0 
0 
0 
0 
0 
0 
0 
0 
0 
0 
0 
0 
0 
0 
0 
0 
0 
0 
0 
0 
0 
0 
0 
0 
0 
0 
0 
0 
0 
0 
0 
0 
0 
0 
0 
0 
0 
0 
0 
0 
0 
0 
0 
0 
0 
0 
0 
0 
0 
0 
0 
0 
0 
0 
0 
0 
0 
0 
0 
0 
0 
0 
0 
0 
0 
0 
0 
0 
0 
0 
0 
0 
0 
0 
0 
0 
0 
0 
0 
0 
0 
0 
0 
0 
0 
0 
0 
0 
0 
0 
0 
0 
0 
0 
0 
0 
0 
0 
0 
0 
0 
0 
0 
0 
0 
0 
0 
0 
0 
0 
0 
0 
0 
0 
0 
0 
0 
0 
0 
0 
0 
0 
0 
0 
0 
0 
0 
0 
0 
0 
0 
0 
0 
0 
0 
0 
0 
0 
0 
0 
0 
0 
0 
0 
0 
0 
0 
0 
0 
0 
0 
0 
0 
0 
0 
0 
0 
0 
0 
0 
0 
0 
0 
0 
0 
0 
0 
0 
0 
0 
0 
0 
0 
0 
0 
0 
0 
0 
0 
0 
0 
0 
0 
0 
0 
0 
0 
0 
0 
0 
0 
0 
0 
0 
0 
0 
0 
0 
0 
0 
0 
0 
0 
0 
0 
0 
0 
0 
0 
0 
0 
0 
0 
0 
0 
0 
0 
0 
1 
2 
3 
4 
5 
6 
7 
8 
9 
10 
11 
12 
13 
14 
15 
16 
17 
18 
19 
20 
21 
22 
23 
24 
25 
26 
27 
28 
29 
30 
31 
32 
33 
34 
35 
36 
37 
38 
39 
40 
41 
42 
43 
44 
45 
46 
47 
48 
49 
50 
51 
52 
53 
54 
55 
56 
57 
58 
59 
60 
61 
62 
63 
64 
65 
66 
67 
68 
69 
70 
71 
72 
73 
74 
75 
76 
77 
78 
79 
80 
81 
82 
83 
84 
85 
86 
87 
88 
89 
90 
91 
92 
93 
94 
95 
96 
97 
98 
99 
100 
101 
102 
103 
104 
105 
106 
107 
108 
109 
110 
111 
112 
113 
114 
115 
116 
117 
118 
119 
120 
121 
122 
123 
124 
125 
126 
127 
128 
129 
130 
131 
132 
133 
134 
135 
136 
137 
138 
139 
140 
141 
142 
143 
144 
145 
146 
147 
148 
149 
150 
151 
152 
153 
154 
155 
156 
157 
158 
159 
160 
161 
162 
163 
164 
165 
166 
167 
168 
169 
170 
171 
172 
173 
174 
175 
176 
177 
178 
179 
180 
181 
182 
183 
184 
185 
186 
187 
188 
189 
190 
191 
192 
193 
194 
195 
196 
197 
198 
199 
200 
201 
202 
203 
204 
205 
206 
207 
208 
209 
210 
211 
212 
213 
214 
215 
216 
217 
218 
219 
220 
221 
222 
223 
224 
225 
226 
227 
228 
229 
230 
231 
232 
233 
234 
235 
236 
237 
238 
239 
240 
241 
242 
243 
244 
245 
246 
247 
248 
249 
250 
251 
252 
253 
254 
255 
256 
257 
258 
259 
260 
261 
262 
263 
264 
265 
266 
267 
268 
269 
270 
271 
272 
273 
274 
275 
276 
277 
278 
279 
280 
281 
282 
283 
284 
285 
286 
287 
288 
289 
290 
291 
292 
293 
294 
295 
296 
297 
298 
299 
300 
301 
302 
303 
304 
305 
306 
307 
308 
309 
310 
311 
312 
313 
314 
315 
316 
317 
318 
319 
320 
321 
322 
323 
324 
325 
326 
327 
328 
329 
330 
331 
332 
333 
334 
335 
336 
337 
338 
339 
340 
341 
342 
343 
344 
345 
346 
347 
348 
349 
350 
351 
352 
353 
354 
355 
356 
357 
358 
359 
360 
361 
362 
363 
364 
365 
366 
367 
368 
369 
370 
371 
372 