# vtk DataFile Version 3.0
MOAB 5.0.1
ASCII
DATASET UNSTRUCTURED_GRID
POINTS 729 double
0 0 0
0.4669833762 0 0.2252024921
0.2169833762 0 0.4752024921
0.2028464649 0.1059523042 0.5012713011
0 0 0.125
0 0 0.5
0.305206235 0.5085413838 0.5294944084
0 0.5 0
0.5 0 0
0.4992675781 0.3742675781 0
0 0.5400333496 0.1177450509
0.4979426925 0.1031211474 0.1409461399
0.2334916881 0 0.237601246
0 0.4400478992 0.2743111746
0.4339667523 0 0.4504049841
0 0.4867208326 0.261370817
0.4997558594 0.1247558594 0
0.4990234375 0.4990234375 0
0.375 0 0
0.25 0 0
0.125 0 0
0 0 0.25
0 0 0.375
0 0.375 0
0 0.25 0
0 0.125 0
0.5519874974 0.4289273728 0.5406799371
0.4403348643 0.09494347562 0.5332818167
0.2500238534 0.1589284562 0.5081063286
0.2716057406 0.4007724279 0.5196627715
0.3803227696 0.3994739598 0.4469882956
0.3011890587 0.3550033653 0.51494506
0.2529242554 0.2746893374 0.4846072403
0.2850316062 0.3060817019 0.4632408053
0.2208169046 0.2432969729 0.5059736752
0.317138957 0.3374740665 0.4418743704
0.1556690765 0.05297615208 0.4944362736
0.4987272056 0.1763164331 0.07047306994
0.4976985518 0.2278770067 0.1409461399
0.2736171876 0.341701287 0.3464708276
0.2590083816 0.280262976 0.3718646497
0.2775509281 0.2568941274 0.369280455
0.2670281869 0.2049197335 0.3316914
0.2534633825 0.1501585203 0.3504736402
0.2882259935 0.403139598 0.3210770054
0.2591607058 0.3745340528 0.2860721451
0.2460156841 0.06478824546 0.3833603211
0.3066996515 0.5238448508 0.3960250363
0.2586426753 0.4489086606 0.325794717
0.1855078421 0.03239412273 0.3166801606
0.3369533244 0.4979722571 0.2657922482
0.3791682338 0.4839142835 0.1001398202
0.4390958356 0.4914688605 0.05006991011
0.3192406319 0.4763597065 0.1502097303
0.25931303 0.4688051295 0.2002796405
0.4824630343 0.05156057369 0.183074316
0.116745844 0 0.243800623
0.120872922 0 0.1219003115
0.2252375321 0 0.356401869
0.3502375321 0 0.231401869
0 0.5487999866 0.4799926324
0 0.476298595 0.3428716605
0 0.5125492908 0.4114321465
0.5033137903 0 0.4373926133
0.4504750642 0 0.3378037381
0.04970142108 0.5185146703 0.3047442381
0.3254750642 0 0.4628037381
0.4989713462 0.05156057369 0.07047306994
0.2495117188 0.4995117188 0
0.3742675781 0.4992675781 0
0.1247558594 0.4997558594 0
0.09435477687 0.217635865 0.5298544278
0.1084916881 0 0.487601246
0 0.5333937659 0.2484304594
0 0.2950312244 0.2154386492
0 0.1966874829 0.1436257661
0 0.3933749659 0.2872515322
0 0.2033573926 0.240811511
0 0.1016786963 0.1829057555
0.4834916881 0 0.112601246
0 0.5200166748 0.05887252543
0.4995117188 0.2495117188 0
0.3610351857 0.1001596689 0.5297114715
0 0.3350506824 0.5485531183
0 0.2233671216 0.5323687455
0 0.1116835608 0.5161843728
0 0.09834374147 0.07181288306
0 0.2037619748 0.06857779365
0 0.2825239496 0.1371555873
0 0.3683604163 0.1306854085
0 0.3091802081 0.06534270425
0 0.3612859244 0.205733381
0 0.4275406244 0.1960281127
0 0.4937953244 0.1863228445
0 0.454196883 0.1242152297
0 0.4145984415 0.06210761484
0 0.4067147852 0.356623022
0 0.4200546045 0.4259945117
0 0.4333944238 0.4953660014
0 0.3250458179 0.465274501
0 0.3150409534 0.3819958838
0 0.2100273023 0.3379972558
0 0.2166972119 0.4351830007
0 0.3050360889 0.2987172665
0 0.1050136511 0.2939986279
0 0.108348606 0.4050915003
0 0.5458824048 0.3291202991
0.1249389648 0.1249389648 0
0.2498779297 0.1248779297 0
0.2497558594 0.2497558594 0
0.1248779297 0.2498779297 0
0.3748168945 0.1248168945 0
0.3746337891 0.2496337891 0
0.3744506836 0.3744506836 0
0.2496337891 0.3746337891 0
0.1248168945 0.3748168945 0
0.5337353427 0 0.32804446
0.3378562982 0 0.3471028036
0.3626187661 0 0.1157009345
0.241745844 0 0.118800623
0.1126187661 0 0.3657009345
0.2591011503 0.4168172965 0.1861137024
0.2444923444 0.3553789855 0.2115075245
0.2447042241 0.4073668185 0.2256734626
0.3180323594 0.2991887547 0.1923509241
0.3771754481 0.233548046 0.2127540839
0.3034235535 0.2377504437 0.2177447463
0.3190287522 0.4243718735 0.1360437923
0.321826488 0.5109085539 0.3309086423
0.2737695118 0.4359723638 0.2606783229
0.3038473128 0.3417261099 0.2460766224
0.438883956 0.4394810275 0.03590397203
0.4380994428 0.3662857418 0.106377042
0.3789563541 0.4319264505 0.08597388214
0.3147776821 0.09718236819 0.3312398587
0.3036949886 0.2474550331 0.331869127
0.3483815956 0.2146470902 0.2918736044
0.2931722474 0.1954806392 0.294280072
0.4272536861 0.03239412273 0.1854807836
0.387523996 0.06478824546 0.1457590751
0.4427333442 0.08395469642 0.1433526075
0.3117147938 0.1721117906 0.2916958773
0.3222375351 0.2240861844 0.3292849323
0.3302573403 0.1487429419 0.2891116826
0.262523996 0.06478824546 0.2707590751
0.3105078421 0.03239412273 0.1916801606
0.3183037945 0.3088933441 0.3064753049
0.3327602763 0.2760605783 0.3668739874
0.2855707333 0.1815508848 0.3291072053
0.3813210683 0.2007287194 0.2497296495
0.3182442391 0.3511765878 0.2065168622
0.3036354331 0.2897382768 0.2319106843
0.3312859941 0.09718236819 0.2186386127
0.3271403739 0.1300016948 0.1816630471
0.2892385069 0.2802877989 0.2714704446
0.4375590703 0.1683345967 0.1768501119
0.3261117201 0.1815622685 0.2521361171
0.3854666885 0.1679093928 0.286705215
0.3781718409 0.3587311648 0.1564469521
0.4417046905 0.1355152701 0.2138256774
0.4373149297 0.2930904561 0.1768501119
0.498483065 0.3010722924 0.07047306994
0.3075691737 0.2049311172 0.2547203118
0.2890266272 0.2282999658 0.2573045065
0.2269010308 0.2488706115 0.3932310846
0.1004389031 0.2098696843 0.2227403476
0.1506583547 0.1672889142 0.2263911968
0.1004389031 0.1115259428 0.1509274645
0.09283328775 0.3996500824 0.2347140875
0.129656515 0.4310900477 0.2437655863
0.1150477091 0.3696517367 0.2691594085
0.137523996 0.06478824546 0.2707590751
0.06876199802 0.03239412273 0.1978795376
0.0648282575 0.4589054401 0.2525682017
0.05021945157 0.05576297141 0.07546373226
0.1189814496 0.08815709414 0.1483432698
0.2008778063 0.2230518856 0.301854929
0.2194203527 0.1996830369 0.2992707343
0.05021945157 0.2524504544 0.2190894984
0.02736477234 0.1564499926 0.1670832912
0.02736477234 0.2547937341 0.2388961743
0.137523996 0.06478824546 0.3957590751
0.1692009012 0.1439200655 0.2238070021
0.1145296786 0.4906992779 0.2959416228
0.2062859941 0.09718236819 0.3436386127
0.229943094 0.2516574308 0.3368597894
0.1877434476 0.1205512169 0.3462228074
0.2089412542 0.4171148228 0.2824212959
0.1642310997 0.5224931156 0.3393150439
0.05021945157 0.3507941958 0.2909023814
0.1793579361 0.4628838855 0.2871390075
0.1004389031 0.3082134258 0.2945532306
0.2290593572 0.4946777232 0.3305124286
0.02800503024 0.3807925415 0.2564570604
0.1797236424 0.2942382009 0.3332089402
0.1652671607 0.3270709667 0.2728102577
0.02736477234 0.05810625115 0.2202704082
0.1506583547 0.2656326557 0.2982040798
0.2379628992 0.1763141883 0.2966865396
0.07758422391 0.1138692226 0.1707341404
0.2163782896 0.1968962176 0.3556420296
0.05472954467 0.1162125023 0.1905408164
0.1278036755 0.2679759354 0.3180107558
0.2565054456 0.1529453396 0.2941023449
0.271608463 0.1383464269 0.4491508386
0.2424015141 0.2227149435 0.4470181852
0.3362829697 0.4780757882 0.3913073247
0.3211561333 0.491012085 0.4564237188
0.2318787729 0.1707405496 0.4094291302
0.2639861237 0.2021329142 0.3880626952
0.3507394514 0.4452430224 0.4517060072
0.3026824752 0.3703068322 0.3814756879
0.2880736693 0.3088685212 0.4068695101
0.2454435773 0.2255017628 0.3906468899
0.1772536861 0.03239412273 0.4354807836
0.1847013845 0.1177643975 0.4025941026
0.2244310745 0.08537027481 0.4423158111
0.3658662879 0.4323067256 0.3865896132
0.4139232641 0.5072429158 0.4568199325
0.2745088649 0.254107308 0.4256517503
0.2559663185 0.2774761567 0.428235945
0.5163834498 0.08779568959 0.4090107554
0.5188891705 0.08399507474 0.4739430581
0.4769870921 0.03205219846 0.4954687847
0.494972471 0.0798121573 0.5182729114
0.04717738844 0.2763432737 0.5392037731
0.09435477687 0.1059523042 0.5136700551
0.04717738844 0.05297615208 0.5068350275
0.0648282575 0.5122179572 0.1089424355
0.2548294655 0.5339262307 0.2434240649
0.3143399763 0.4917130011 0.05006991011
0.2544123744 0.4841584241 0.1001398202
0.1895841169 0.4919571418 0.05006991011
0.0648282575 0.4922012824 0.05006991011
0.129656515 0.4844025648 0.1001398202
0.2503657901 0.5322280607 0.1941991295
0.1855375326 0.5400267783 0.1441292193
0.4275150974 0.362865402 0.4719250757
0.441611357 0.4035360372 0.5106292317
0.5047951696 0.4655359306 0.515743157
0.4888036847 0.3669274795 0.5355660118
0.4115236125 0.2642569509 0.4917479306
0.4879228891 0.1432798765 0.5188173641
0.4086232105 0.1484960698 0.5152470189
0.4699375102 0.09551991768 0.4960132374
0.3906378316 0.1007361109 0.4924428923
0.3643728713 0.4170032586 0.5200589852
0.329323532 0.153712263 0.5116766738
0.311338153 0.1059523042 0.4888725471
0.4587159403 0.2276483931 0.5166847107
0.3643312847 0.3008655087 0.4668111505
0.3001165831 0.2380807796 0.5095440203
0.3322239339 0.2694731441 0.4881775854
0.4407305614 0.1798884343 0.493880584
0.427556684 0.479003152 0.5251729105
0.4568085281 0.5130814111 0.165652428
0.51673613 0.5206359881 0.1155825179
0.4745212206 0.5346939617 0.2812349458
0.02431165977 0.4977822989 0.5282263777
0.02431165977 0.5044357743 0.3071715509
0.09832474062 0.5539445538 0.396345706
0.04862331954 0.5354905353 0.4223437746
0.07401308085 0.4895566787 0.3634853297
0.04862331954 0.522150716 0.3529722849
0.09940284216 0.5036355747 0.3610580168
0.1145296786 0.5373722112 0.2830012652
0.255448288 0.3518507645 0.4679585169
0.1415321653 0.1589284562 0.5205050826
0.2420224224 0.4465414905 0.5243804831
0.2875556388 0.3832431291 0.446592082
0.144056198 0.3477734442 0.520040732
0.1688969376 0.2170347074 0.4907754908
0.1714209703 0.2941961345 0.4741267674
0.2010042885 0.2484270719 0.4694090558
0.2073910389 0.3379876988 0.5623956414
0.2233409372 0.3204584 0.4893249518
0.2394983897 0.3693800633 0.5410292065
0.1887095537 0.2119046083 0.5273401101
0.193757619 0.3662274626 0.4940426634
0.4659547224 0.05156057369 0.295675562
0.4494464105 0.05156057369 0.408276808
0.5187934484 0.05156057369 0.3952644372
0.4814343805 0.1031211474 0.2535473859
0.5266572037 0.1251408613 0.3164526758
[...]
POINT_DATA 729
SCALARS GLOBAL_ID int 1
LOOKUP_TABLE default
0 
11 
14 
23 
31 
35 
46 
47 
51 
61 
70 
71 
72 
77 
78 
79 
84 
100 
118 
119 
120 
121 
122 
155 
156 
157 
172 
182 
199 
200 
201 
202 
203 
204 
205 
206 
207 
260 
261 
263 
264 
265 
266 
267 
268 
269 
270 
271 
272 
273 
275 
276 
277 
279 
280 
281 
282 
283 
292 
293 
294 
295 
296 
320 
321 
324 
331 
340 
361 
362 
363 
396 
423 
435 
437 
438 
439 
440 
441 
454 
466 
478 
481 
486 
487 
488 
569 
570 
571 
572 
573 
574 
575 
576 
577 
578 
579 
580 
581 
582 
583 
584 
585 
586 
587 
588 
590 
692 
693 
694 
695 
696 
697 
698 
699 
700 
709 
737 
738 
739 
740 
1211 
1212 
1213 
1214 
1215 
1216 
1217 
1218 
1219 
1220 
1221 
1222 
1223 
1224 
1225 
1226 
1227 
1228 
1229 
1230 
1231 
1232 
1233 
1234 
1235 
1236 
1237 
1238 
1239 
1240 
1241 
1242 
1243 
1244 
1245 
1246 
1247 
1248 
1249 
1250 
1251 
1252 
1253 
1408 
1409 
1410 
1411 
1412 
1413 
1414 
1415 
1416 
1417 
1418 
1419 
1420 
1421 
1422 
1423 
1424 
1425 
1426 
1427 
1428 
1429 
1430 
1431 
1432 
1433 
1434 
1435 
1436 
1437 
1438 
1439 
1440 
1441 
1442 
1443 
1444 
1445 
1446 
1447 
1475 
1476 
1477 
1478 
1479 
1480 
1481 
1482 
1483 
1484 
1485 
1486 
1487 
1488 
1489 
1490 
1491 
1527 
1528 
1530 
1533 
1535 
1536 
1538 
1595 
1597 
1598 
1599 
1601 
1602 
1603 
1604 
1605 
1607 
1608 
1609 
1611 
1612 
1613 
1614 
1615 
1616 
1617 
1618 
1619 
1623 
1625 
1627 
1628 
1629 
1636 
1642 
1645 
1650 
1690 
1694 
1701 
1705 
1709 
1710 
1712 
1757 
1819 
1823 
1824 
1827 
1829 
1830 
1831 
1832 
1833 
1834 
1835 
1836 
1839 
1842 
1843 
1844 
1849 
1851 
1852 
1868 
1869 
1870 
1871 
2068 
2070 
2071 
2081 
2082 
2083 
2238 
2239 
2241 
2242 
2243 
2244 
2245 
2246 
2247 
2248 
2249 
2250 
2251 
2252 
2254 
2255 
2256 
2258 
2259 
2260 
2261 
2262 
2263 
2264 
2265 
2266 
2272 
2273 
2274 
2276 
2280 
2282 
2283 
2284 
2285 
2287 
2288 
2289 
2290 
2291 
2292 
2293 
2294 
2295 
2296 
2297 
2298 
2299 
2300 
2301 
2302 
2303 
2310 
2311 
2312 
2313 
2314 
2316 
2317 
2318 
2320 
2321 
2322 
2323 
2324 
2327 
2328 
2329 
2330 
2331 
2333 
2334 
2335 
2336 
2337 
2338 
2339 
2340 
2341 
2342 
2343 
2344 
2345 
2346 
2347 
2348 
2349 
2350 
2351 
2352 
2353 
2354 
2356 
2357 
2358 
2359 
2360 
2361 
2362 
2363 
2364 
2365 
2366 
2367 
2368 
2564 
2602 
3181 
3182 
3183 
3184 
3185 
3186 
3187 
3188 
3189 
3190 
3191 
3192 
3193 
3194 
3195 
3196 
3197 
3198 
3199 
3200 
3201 
3202 
3203 
3204 
3205 
3206 
3207 
3208 
3209 
3210 
3211 
3212 
3213 
3214 
3215 
3216 
3217 
3218 
3219 
3221 
3223 
3224 
3225 
3229 
3230 
3231 
3232 
3234 
3235 
3236 
3237 
3238 
3239 
3240 
3241 
3242 
3243 
3246 
3247 
3248 
3249 
3250 
3251 
3252 
3253 
3254 
3255 
3256 
3257 
3258 
3259 
3260 
3261 
3262 
3263 
3264 
3265 
3266 
3267 
3268 
3269 
3270 
3271 
3272 
3273 
3274 
3275 
3276 
3277 
3278 
3282 
3283 
3284 
3285 
3286 
3287 
3288 
3289 
3290 
3291 
3293 
3294 
3295 
3298 
3299 
3300 
3301 
3302 
3303 
3304 
3305 
3306 
3307 
3308 
3309 
3310 
3311 
3312 
3313 
3314 
3315 
3316 
3317 
3318 
3319 
3320 
3321 
3322 
3323 
3324 
3325 
3326 
3327 
3328 
3329 
3330 
3331 
3332 
3333 
3334 
3335 
3336 
3337 
3338 
3339 
3340 
3341 
3342 
3343 
3344 
3345 
3346 
3347 
3348 
3349 
3350 
3351 
3352 
3353 
3354 
3355 
3356 
3357 
3358 
3359 
3360 
3361 
3362 
3363 
3364 
3365 
3366 
3367 
3368 
3369 
3370 
3371 
3372 
3373 
3374 
3375 
3376 
3377 
3378 
3379 
3380 
3381 
3382 
3383 
3384 
3385 
3386 
3387 
3388 
3389 
3390 
3391 
3392 
3393 
3394 
3395 
3396 
3397 
3398 
3399 
3400 
3401 
3402 
3403 
3404 
3405 
3406 
3407 
3408 
3409 
3410 
3411 
3412 
3413 
3414 
3415 
3416 
3417 
3418 
3419 
3420 
3421 
3422 
3423 
3424 
3425 
3426 
3427 
3428 
3429 
3430 
3431 
3432 
3433 
3434 
3435 
3436 
3437 
3438 
3439 
3440 
3441 
3442 
3443 
3444 
3445 
3446 
3447 
3448 
3449 
3450 
3451 
3452 
3453 
3454 
3455 
3456 
3457 
3458 
3459 
3460 
3461 
3462 
3463 
3464 
3465 
3466 
3467 
3468 
3469 
3470 
3471 
3472 
3473 
3474 
3475 
3476 
3477 
3478 
3479 
3480 
3481 
3482 
3483 
3484 
3485 
3486 
3487 
3488 
3489 
3490 
3491 
3492 
3493 
3494 
3495 
3496 
3497 
3498 
3499 
3500 
3501 
3502 
3503 
3504 
3505 
3506 
3507 
3508 
3509 
3510 
4393 
4404 
4419 
4459 
4460 
4477 
4488 
4491 
4503 
4548 
4555 
SCALARS LOCAL_ID_L1 int 1
LOOKUP_TABLE default
0 
1 
1 
5 
4 
9 
11 
6 
6 
7 
11 
11 
12 
13 
17 
12 
14 
26 
18 
19 
20 
21 
22 
23 
24 
25 
34 
32 
36 
37 
30 
38 
39 
40 
41 
35 
42 
37 
38 
39 
40 
41 
42 
43 
44 
45 
46 
51 
52 
49 
54 
55 
56 
58 
59 
39 
56 
57 
58 
59 
53 
61 
62 
55 
56 
65 
53 
57 
68 
69 
70 
62 
66 
86 
74 
75 
76 
77 
78 
84 
89 
88 
77 
78 
79 
80 
86 
87 
88 
89 
90 
91 
92 
93 
94 
95 
96 
97 
90 
95 
100 
101 
102 
103 
104 
105 
96 
107 
108 
109 
110 
111 
112 
113 
114 
115 
112 
117 
118 
119 
120 
121 
122 
123 
124 
125 
126 
127 
126 
129 
130 
131 
132 
133 
134 
135 
136 
137 
138 
139 
140 
141 
142 
143 
144 
145 
146 
147 
148 
149 
150 
151 
152 
153 
154 
155 
156 
157 
158 
159 
160 
280 
162 
163 
164 
165 
166 
167 
168 
169 
170 
171 
172 
173 
174 
175 
176 
177 
178 
179 
180 
181 
182 
174 
184 
185 
186 
187 
175 
189 
176 
191 
177 
193 
194 
195 
196 
197 
198 
199 
200 
201 
202 
203 
204 
205 
178 
179 
208 
209 
178 
211 
212 
213 
214 
215 
216 
217 
180 
219 
220 
285 
317 
319 
320 
183 
184 
186 
201 
203 
204 
205 
207 
208 
209 
210 
211 
194 
195 
334 
335 
199 
336 
201 
337 
203 
204 
205 
206 
341 
212 
214 
215 
216 
159 
325 
328 
330 
171 
230 
236 
240 
244 
245 
247 
257 
235 
239 
240 
243 
245 
246 
247 
273 
248 
249 
250 
251 
254 
327 
328 
329 
334 
336 
337 
258 
259 
260 
261 
340 
342 
343 
353 
354 
355 
510 
511 
513 
298 
299 
300 
301 
262 
303 
268 
305 
269 
307 
308 
375 
272 
376 
518 
519 
314 
520 
316 
317 
521 
522 
320 
528 
529 
530 
574 
275 
378 
536 
537 
329 
380 
280 
332 
539 
334 
540 
281 
337 
338 
339 
340 
341 
342 
343 
344 
345 
346 
229 
348 
349 
547 
548 
576 
577 
354 
553 
554 
357 
358 
359 
360 
361 
362 
269 
364 
365 
366 
367 
368 
270 
370 
371 
372 
271 
272 
375 
376 
377 
378 
379 
380 
381 
382 
383 
384 
385 
386 
387 
388 
558 
559 
391 
560 
561 
562 
395 
579 
564 
398 
399 
308 
346 
402 
403 
404 
405 
406 
407 
408 
409 
410 
411 
412 
413 
414 
415 
416 
417 
418 
419 
420 
421 
422 
423 
424 
425 
426 
427 
428 
429 
430 
431 
432 
433 
434 
435 
436 
437 
438 
439 
440 
330 
486 
487 
444 
445 
446 
447 
491 
273 
493 
333 
452 
453 
454 
495 
456 
276 
458 
459 
460 
461 
462 
463 
464 
465 
466 
467 
468 
277 
470 
471 
336 
499 
337 
500 
338 
502 
503 
339 
340 
506 
507 
483 
484 
485 
486 
487 
488 
489 
490 
491 
492 
493 
494 
495 
285 
286 
498 
499 
287 
501 
289 
290 
291 
292 
506 
507 
508 
509 
510 
511 
512 
513 
293 
294 
295 
296 
297 
298 
520 
521 
522 
299 
300 
525 
526 
527 
528 
529 
301 
302 
532 
533 
534 
535 
536 
537 
538 
539 
303 
541 
542 
543 
544 
545 
546 
547 
548 
549 
550 
551 
552 
553 
554 
555 
556 
557 
558 
559 
560 
561 
562 
563 
564 
565 
566 
567 
568 
569 
570 
571 
572 
573 
574 
575 
576 
577 
578 
579 
580 
581 
582 
583 
584 
585 
586 
587 
588 
589 
590 
591 
512 
593 
594 
513 
514 
597 
515 
516 
517 
518 
602 
519 
520 
605 
606 
607 
608 
609 
610 
611 
521 
522 
614 
615 
523 
617 
618 
524 
525 
526 
622 
623 
624 
625 
626 
627 
628 
629 
630 
631 
632 
633 
527 
635 
636 
637 
638 
639 
640 
641 
642 
643 
644 
645 
646 
647 
648 
649 
650 
651 
652 
653 
654 
655 
656 
657 
658 
659 
660 
661 
662 
663 
664 
665 
666 
667 
668 
669 
670 
671 
672 
673 
674 
675 
676 
677 
678 
679 
680 
681 
682 
683 
684 
685 
686 
687 
688 
689 
690 
691 
692 
693 
694 
695 
696 
697 
698 
699 
700 
701 
702 
703 
704 
705 
706 
707 
708 
709 
710 
711 
712 
713 
714 
715 
716 
717 
327 
338 
353 
393 
394 
411 
422 
425 
436 
480 
487 
CELL_DATA 3247
SCALARS GLOBAL_ID int 1
LOOKUP_TABLE default
1457 
1458 
1459 
1460 
1461 
1462 
1463 
1474 
1496 
1499 
1501 
1505 
1507 
1817 
1818 
2865 
2912 
2920 
2921 
2922 
2923 
2924 
2925 
2926 
2927 
2928 
2929 
2930 
2931 
2932 
2933 
2934 
2935 
2938 
2942 
2944 
2945 
2946 
2947 
2948 
2949 
2950 
2951 
2952 
2953 
2954 
2955 
2956 
2957 
2958 
2959 
2960 
2961 
2962 
2963 
2964 
2965 
2966 
2967 
2968 
2969 
2970 
2971 
2972 
2973 
2974 
2975 
2976 
2977 
2978 
2979 
2980 
2981 
2982 
2983 
3075 
3076 
3077 
3078 
3079 
3080 
3081 
3090 
3091 
3092 
3093 
3094 
3095 
3096 
3097 
3098 
3099 
3101 
3102 
3103 
3104 
3105 
3106 
3107 
3108 
3109 
3110 
3111 
3112 
3113 
3114 
3115 
3119 
3120 
3121 
3122 
3123 
3124 
3125 
3126 
3127 
3128 
3129 
3131 
3133 
3134 
3135 
3136 
3137 
3138 
3139 
3140 
3141 
3142 
3143 
3144 
3145 
3146 
3147 
3148 
3149 
3150 
3151 
3152 
3153 
3154 
3155 
3156 
3157 
3158 
3159 
3160 
3161 
3162 
3163 
3164 
3165 
3166 
3167 
3168 
3169 
3170 
3171 
3172 
3173 
3174 
3175 
3176 
3177 
3178 
3179 
3180 
3181 
3182 
3183 
3184 
3185 
3186 
3187 
3188 
3189 
3190 
3191 
3192 
3245 
3251 
3253 
3260 
3261 
3262 
3263 
3269 
3276 
3277 
3278 
3279 
3280 
3281 
3282 
3283 
3284 
3285 
3287 
3288 
3289 
3290 
3291 
3294 
3300 
3302 
3306 
3307 
3310 
3311 
3312 
3314 
3315 
3316 
3317 
3318 
3319 
3320 
3321 
3322 
3323 
3324 
3327 
3328 
3329 
3330 
3331 
3332 
3333 
3334 
3335 
3336 
3337 
3338 
3339 
3340 
3341 
3342 
3343 
3344 
3345 
3346 
3347 
3348 
3349 
3350 
3351 
3352 
3353 
3354 
3355 
3356 
3357 
3358 
3359 
3360 
3361 
3362 
3363 
3364 
3365 
3366 
3367 
3368 
3369 
3370 
3371 
3372 
3373 
3374 
3375 
3376 
3377 
3378 
3379 
3380 
3381 
3382 
3383 
3439 
3445 
3446 
3447 
3448 
3450 
3451 
3455 
3456 
3457 
3459 
3462 
3463 
3464 
3466 
3467 
3485 
3486 
3487 
3488 
3489 
3490 
3491 
3492 
3493 
3494 
3495 
3496 
3497 
3498 
3499 
3500 
3501 
3502 
3503 
3504 
3505 
3506 
3507 
3508 
3509 
3510 
3511 
3512 
3513 
3514 
3515 
3516 
3517 
3518 
3519 
3520 
3521 
3522 
3523 
3524 
3525 
3526 
3527 
3528 
3529 
3530 
3531 
3532 
3556 
3559 
3567 
3591 
3592 
3593 
3594 
3595 
3596 
3597 
3598 
3599 
3600 
3601 
3602 
3603 
3604 
3605 
3606 
3607 
3608 
3612 
3613 
3614 
3616 
3617 
3618 
3619 
3620 
3621 
3622 
3623 
3624 
3625 
3626 
3628 
3630 
3631 
3632 
3633 
3634 
3635 
3636 
3637 
3665 
3666 
3667 
3668 
3669 
3670 
3671 
3672 
3673 
3674 
3675 
3676 
3677 
3678 
3679 
3680 
3681 
3682 
3683 
3684 
3685 
3686 
3687 
3688 
3689 
3690 
3691 
3692 
3693 
3694 
3695 
3696 
3697 
3698 
3699 
3700 
3701 
3702 
3703 
3704 
3705 
3706 
3707 
3708 
3709 
3710 
3711 
3712 
3713 
3714 
3715 
3716 
3717 
3718 
3719 
3720 
3721 
3722 
3723 
3724 
3725 
3726 
3727 
3769 
3770 
3771 
3772 
3773 
3774 
3775 
3776 
3777 
3778 
3779 
3780 
3781 
3782 
3783 
3784 
3785 
3786 
3787 
3788 
3789 
3790 
3791 
3792 
3793 
3794 
3795 
3796 
3797 
3798 
3799 
3804 
3805 
3836 
3837 
3838 
3839 
3853 
3854 
3874 
3875 
3877 
3880 
3881 
3882 
3883 
3884 
3885 
3886 
3887 
3888 
3889 
3890 
3891 
3892 
3893 
3894 
3895 
3896 
3897 
3898 
3899 
3900 
3901 
3902 
3903 
3904 
3905 
3906 
3907 
3908 
3909 
3910 
3911 
3912 
3913 
3914 
3915 
3916 
3917 
3918 
3919 
3920 
3921 
3922 
3923 
3924 
3925 
3926 
3927 
3928 
3929 
3930 
3931 
3932 
3933 
3934 
3935 
3936 
3937 
3938 
3939 
3940 
3941 
3942 
3945 
3947 
3965 
3966 
3967 
3968 
3969 
3970 
3971 
3972 
3973 
3974 
3975 
3976 
3977 
3978 
3979 
3980 
3981 
3982 
3983 
3984 
3985 
3986 
3987 
3988 
3989 
3990 
3991 
3992 
3993 
3994 
3995 
3996 
3997 
3998 
3999 
4000 
4001 
4002 
4003 
4004 
4005 
4006 
4007 
4008 
4009 
4010 
4011 
4012 
4013 
4014 
4015 
4016 
4017 
4018 
4019 
4020 
4021 
4022 
4023 
4024 
4025 
4026 
4027 
4028 
4029 
4031 
4032 
4033 
4035 
4036 
4037 
4038 
4039 
4040 
4041 
4042 
4043 
4044 
4045 
4046 
4047 
4048 
4049 
4050 
4051 
4052 
4053 
4054 
4055 
4056 
4057 
4058 
4059 
4060 
4061 
4062 
4063 
4064 
4065 
4066 
4067 
4068 
4087 
4088 
4089 
4090 
4091 
4092 
4093 
4094 
4095 
4096 
4097 
4098 
4099 
4100 
4101 
4102 
4103 
4104 
4105 
4113 
4117 
4129 
4130 
4131 
4132 
4145 
4146 
4147 
4148 
4149 
4150 
4151 
4154 
4160 
4184 
4187 
4189 
4193 
4195 
4200 
4208 
4209 
4210 
4211 
4212 
4213 
4214 
4215 
4216 
4217 
4218 
4219 
4220 
4221 
4222 
4223 
4224 
4225 
4226 
4227 
4228 
4229 
4230 
4231 
4232 
4233 
4234 
4235 
4236 
4237 
4238 
4239 
4240 
4241 
4242 
4243 
4244 
4245 
4246 
4247 
4248 
4249 
4250 
4251 
4252 
4253 
4254 
4255 
4256 
4257 
4258 
4259 
4260 
4261 
4262 
4263 
4264 
4265 
4266 
4267 
4268 
4269 
4270 
4271 
4272 
4273 
4274 
4275 
4276 
4277 
4278 
4279 
4280 
4304 
4305 
4306 
4307 
4308 
4309 
4310 
4311 
4312 
4313 
4314 
4315 
4316 
4317 
4318 
4319 
4320 
4321 
4322 
4323 
4324 
4325 
4326 
4327 
4328 
4329 
4330 
4331 
4332 
4333 
4334 
4335 
4336 
4337 
5856 
6271 
11568 
11569 
11570 
11571 
11572 
11573 
11574 
11575 
11576 
11577 
11578 
11579 
11580 
11581 
11582 
11583 
11584 
11585 
11586 
11587 
11588 
11589 
11590 
11591 
11592 
11593 
11594 
11595 
11596 
11597 
11598 
11599 
11600 
11601 
11602 
11603 
11604 
11605 
11606 
11607 
11608 
11609 
11610 
11611 
11612 
11613 
11614 
11615 
11616 
11617 
11618 
11619 
11620 
11621 
11622 
11623 
11624 
11625 
11626 
11627 
11628 
11629 
11630 
11631 
11632 
11633 
11634 
11635 
11636 
11637 
11638 
11639 
11640 
11641 
11642 
11643 
11644 
11645 
11646 
11647 
11648 
11649 
11650 
11651 
11652 
11653 
11654 
11655 
11656 
11657 
11658 
11659 
11660 
11661 
11662 
11663 
11664 
11665 
11666 
11667 
11668 
11669 
11670 
11671 
11672 
11673 
11674 
11675 
11676 
11677 
11678 
11679 
11680 
11681 
11682 
11683 
11684 
11685 
11686 
11690 
11695 
11699 
11700 
11701 
11702 
11703 
11704 
11705 
11706 
11723 
11724 
11725 
11726 
11727 
11728 
11729 
11730 
11731 
11732 
11733 
11734 
11735 
11736 
11737 
11738 
11739 
11740 
11741 
11742 
11743 
11744 
11745 
11746 
11747 
11748 
11749 
11750 
11751 
11752 
11753 
11754 
11755 
11756 
11757 
11758 
11759 
11760 
11761 
11762 
11775 
11776 
11777 
11780 
11784 
11786 
11788 
11789 
11790 
11791 
11792 
11793 
11794 
11795 
11798 
11799 
11800 
11802 
11804 
11805 
11806 
11807 
11808 
11809 
11810 
11811 
11812 
11813 
11814 
11815 
11816 
11817 
11818 
11819 
11820 
11821 
11822 
11823 
11826 
11828 
11830 
11832 
11833 
11835 
11836 
11837 
11838 
11839 
11840 
11842 
11843 
11844 
11845 
11846 
11847 
11858 
11859 
11860 
11861 
11862 
11863 
11864 
11865 
11866 
11867 
11868 
11869 
11870 
11871 
11872 
11874 
11875 
11876 
11877 
11878 
11879 
11880 
11881 
11882 
11883 
11884 
11885 
11886 
11887 
11888 
11889 
11919 
11920 
11921 
11922 
11923 
11924 
11925 
11926 
11927 
11928 
11929 
11930 
11931 
11932 
11933 
11934 
11935 
11936 
11937 
11938 
11939 
11940 
11941 
11942 
11943 
11944 
11945 
11946 
11947 
11948 
11949 
11950 
11951 
11952 
11953 
11954 
11955 
11956 
11957 
11958 
11959 
11960 
11961 
11962 
11963 
11964 
11965 
11966 
11967 
11968 
11969 
11970 
11971 
11972 
11973 
11974 
11976 
11977 
11978 
11979 
11980 
11981 
11982 
11983 
11984 
11985 
11986 
11987 
11988 
11989 
11990 
11991 
11992 
11993 
11994 
11995 
11996 
11997 
11998 
11999 
12000 
12001 
12002 
12003 
12004 
12005 
12006 
12007 
12008 
12009 
12010 
12011 
12012 
12013 
12014 
12015 
12016 
12017 
12018 
12019 
12020 
12021 
12022 
12023 
12024 
12025 
12026 
12027 
12028 
12029 
12030 
12031 
12032 
12033 
12034 
12035 
12036 
12037 
12040 
12044 
12045 
12046 
12047 
12048 
12049 
12050 
12051 
12052 
12053 
12056 
12057 
12058 
12062 
12063 
12065 
12066 
12067 
12069 
12070 
12073 
12079 
12080 
12082 
12084 
12088 
12092 
12094 
12095 
12096 
12097 
12098 
12099 
12100 
12101 
12102 
12103 
12104 
12105 
12106 
12107 
12108 
12109 
12110 
12111 
12112 
12113 
12114 
12115 
12116 
12117 
12118 
12119 
12120 
12121 
12122 
12123 
12124 
12125 
12126 
12127 
12128 
12129 
12130 
12131 
12132 
12133 
12134 
12135 
12136 
12137 
12138 
12139 
12140 
12141 
12142 
12143 
12144 
12145 
12146 
12147 
12148 
12149 
12150 
12151 
12152 
12153 
12154 
12155 
12156 
12157 
12195 
12196 
12197 
12198 
12199 
12200 
12201 
12202 
12203 
12204 
12205 
12206 
12207 
12208 
12209 
12210 
12211 
12212 
12213 
12214 
12215 
12216 
12217 
12218 
12219 
12221 
12222 
12223 
12224 
12225 
12226 
12227 
12228 
12229 
12230 
12231 
12232 
12233 
12234 
12235 
12236 
12237 
12238 
12239 
12240 
12241 
12242 
12243 
12244 
12245 
12246 
12247 
12248 
12249 
12250 
12251 
12252 
12253 
12254 
12255 
12256 
12257 
12258 
12267 
12357 
12358 
12359 
12360 
12363 
12365 
12367 
12373 
12375 
12378 
12396 
12397 
12398 
12399 
12400 
12401 
12402 
12403 
12404 
12405 
12406 
12407 
12408 
12409 
12410 
12411 
12412 
12413 
12414 
12415 
12416 
12417 
12418 
12419 
12420 
12421 
12422 
12423 
12424 
12425 
12426 
12427 
12428 
12429 
12430 
12431 
12432 
12433 
12434 
12435 
12436 
12437 
12438 
12439 
12440 
12441 
12442 
12443 
12444 
12445 
12446 
12447 
12448 
12449 
12450 
12451 
12452 
12453 
12454 
12455 
12456 
12457 
12458 
12459 
12460 
12461 
12462 
12463 
12464 
12465 
12466 
12467 
12468 
12469 
12470 
12471 
12472 
12473 
12474 
12475 
12476 
12477 
12478 
12479 
12480 
12481 
12482 
12483 
12484 
12485 
12486 
12487 
12488 
12489 
12490 
12491 
12492 
12493 
12494 
12495 
12496 
12497 
12498 
12499 
12500 
12501 
12502 
12503 
12504 
12505 
12515 
12516 
12518 
12520 
12521 
12522 
12523 
12524 
12525 
12526 
12527 
12528 
12529 
12532 
12533 
12537 
12538 
12541 
12542 
12544 
12545 
12552 
12554 
12555 
12556 
12557 
12558 
12559 
12560 
12563 
12564 
12565 
12567 
12579 
12580 
12581 
12582 
12583 
12584 
12585 
12586 
12587 
12590 
12591 
12593 
12594 
12595 
12596 
12597 
12598 
12599 
12600 
12601 
12602 
12603 
12604 
12605 
12606 
12607 
12608 
12609 
12610 
12611 
12612 
12613 
12614 
12615 
12616 
12617 
12618 
12619 
12620 
12621 
12622 
12623 
12624 
12625 
12626 
12627 
12628 
12629 
12630 
12631 
12632 
12633 
12634 
12635 
12636 
12637 
12638 
12639 
12640 
12641 
12642 
12643 
12644 
12645 
12646 
12647 
12648 
12649 
12650 
12653 
12659 
12660 
12661 
12662 
12663 
12664 
12665 
12666 
12668 
12671 
12672 
12673 
12676 
12677 
12678 
12679 
12686 
12687 
12688 
12689 
12690 
12691 
12692 
12693 
12694 
12695 
12696 
12697 
12698 
12699 
12700 
12701 
12702 
12703 
12704 
12705 
12706 
12707 
12708 
12709 
12710 
12711 
12712 
12713 
12714 
12715 
12716 
12717 
12718 
12719 
12720 
12721 
12722 
12723 
12724 
12725 
12726 
12727 
12728 
12729 
12730 
12731 
12732 
12733 
12734 
12735 
12736 
12737 
12738 
12739 
12740 
12741 
12742 
12743 
12744 
12745 
12746 
12747 
12748 
12749 
12750 
12751 
12752 
12753 
12754 
12755 
12756 
12757 
12758 
12759 
12760 
12761 
12762 
12763 
12764 
12765 
12766 
12767 
12768 
12769 
12770 
12771 
12772 
12773 
12774 
12775 
12776 
12777 
12778 
12779 
12780 
12781 
12782 
12783 
12784 
12785 
12786 
12787 
12788 
12789 
12790 
12791 
12792 
12793 
12794 
12795 
12796 
12797 
12798 
12799 
12800 
12801 
12802 
12803 
12804 
12805 
12806 
12807 
12808 
12809 
12810 
12811 
12812 
12813 
12814 
12815 
12816 
12817 
12818 
12819 
12820 
12821 
12822 
12824 
12825 
12826 
12827 
12828 
12829 
12830 
12831 
12832 
12833 
12834 
12835 
12836 
12837 
12838 
12839 
12840 
12841 
12842 
12843 
12844 
12845 
12846 
12847 
12848 
12849 
12850 
12851 
12852 
12853 
12854 
12855 
12856 
12857 
12858 
12859 
12860 
12861 
12862 
12863 
12864 
12865 
12866 
12867 
12868 
12869 
12870 
12873 
12878 
12879 
12880 
12881 
12882 
12883 
12884 
12885 
12886 
12887 
12888 
12889 
12890 
12891 
12892 
12893 
12894 
12895 
12896 
12897 
12898 
12899 
12900 
12901 
12902 
12903 
12904 
12905 
12906 
12907 
12908 
12909 
12910 
12911 
12912 
12913 
12914 
12915 
12916 
12917 
12918 
12919 
12920 
12921 
12922 
12923 
12924 
12925 
12926 
12927 
12928 
12929 
12930 
12931 
12932 
12933 
12934 
12935 
12936 
12937 
12938 
12939 
12940 
12941 
12942 
12943 
12944 
12945 
12946 
12947 
12948 
12951 
12954 
12955 
12958 
12959 
12960 
12961 