# vtk DataFile Version 3.0
MOAB 5.0.1
ASCII
DATASET UNSTRUCTURED_GRID
POINTS 102 double
0 0 0
1 0 0
0 1 0
1 1 0
0 0 1
1 0 1
0 1 1
1 1 1
1 0.5 0
0.5 0 1
0.5 0 0
1 1 0.5
0.5 1 1
1 0 0.5
0 0 0.5
0 0.5 1
0.5 1 0
0 1 0.5
0 0.5 0
1 0.5 1
0.4339667523 1 0.4504049841
0.7113549042 1 0.3983555008
0.7622921241 1 0.5840829765
0.5 0.5000011933 1
1 0.6449164929 0.3549476928
0.4990234375 0.4990234375 0
0.4339667523 0 0.4504049841
0 0.3933749659 0.2872515322
0 0.5800666993 0.2354901017
0 0.4467342431 0.5647374911
0.7113549042 0 0.3983555008
0.7622921241 0 0.5840829765
1 0.4957917825 0.5040592833
1 0.3317745088 0.6678809306
0.8378936996 0.897067013 0.3886619151
0.8754473032 0.8251844672 0.4522285604
0.5341698095 0.758203377 0.759588829
0.5622933064 0.3537223762 0.6964381148
0.3874976844 0.1887340671 0.6906958078
0.5059082681 0.1910398354 0.5416214908
0.7519243749 0.5871017236 0.2302703551
0.5060734883 0.7498003046 0.2218473501
0.4958853849 0.2062422947 0.2818922797
0.5698742075 0.5854736399 0.4623300714
0.5926416782 0.8192627916 0.5058574293
0.7647044817 0.7428252812 0.432168232
0.8641709197 0.2043522698 0.7753306001
0.7488221126 0.2671265029 0.8508204837
0.6808912927 0.08807885583 0.2516211594
0.8040403028 0.436572705 0.7973427245
0.9177574019 0.1895840439 0.4200297067
0.7932642657 0.2161388569 0.6763172448
0.7631145584 0.356603362 0.3799250479
0.8646463262 0.1248524423 0.6120049663
0.8471790747 0.07868847147 0.4230001071
0.7017149095 0.1449404636 0.4533407736
0.7746083364 0.4920030815 0.6626550441
0.733767225 0.7190504041 0.6424159215
0.8460407926 0.1066217577 0.2940357892
0.6981507133 0.1286057455 0.8037654713
0.728218473 0.6959646608 0.8368911101
0.8343837495 0.730662041 0.7538058231
0.9065065298 0.5593632934 0.7550660072
0.7374928411 0.1836120025 0.204309057
0.8155439595 0.08766219388 0.7432033771
0.6060481115 0.1282087939 0.6306601866
0.877044368 0.773519805 0.5949629782
0.8679138809 0.3688942777 0.2078386589
0.7448493636 0.2851379616 0.07320476378
0.6424998181 0.8914350676 0.6451391548
0.7210090459 0.8804488808 0.7973971435
0.8128623884 0.9283992472 0.6055733176
0.8088631949 0.9052960525 0.7303839848
0.8742878836 0.9069004229 0.6761363587
0.6460876766 0.8872541575 0.2890279536
0.2893646818 0.701078216 0.7422855774
0.2413787718 0.7292895342 0.3728573382
0.2750479921 0.1295764909 0.2915181502
0.2008778063 0.2230518856 0.301854929
0.8675562245 0.7786231901 0.2710558137
0.7338172446 0.740762341 0.1276695404
0.1094590893 0.2324250046 0.3810816327
0.317138957 0.3374740665 0.4418743704
0.09724663907 0.6509264661 0.4186930375
0.1988056843 0.5205503169 0.4607452167
0.112020121 0.3430452683 0.1640736449
0.25931303 0.4688051295 0.2002796405
0.2584655113 0.2608537973 0.1436158881
0.2235240704 0.7224968541 0.1759575965
0.1635668357 0.7325117901 0.5622126409
0.1029159901 0.7686648156 0.2243697427
0.7397210779 0.8359651751 0.2350434999
0.2533393639 0.4075912617 0.7341571287
0.2320787628 0.854497525 0.2457519535
0.1887095537 0.2119046083 0.5273401101
0.1193425293 0.7926398652 0.3208920445
0.2624754845 0.8433634296 0.7361085843
0.1623406019 0.2393360136 0.7273874021
0.2468423576 0.1176476292 0.715818225
0.1422124719 0.7040807877 0.7463927058
0.2931667383 0.253197232 0.8347412491
0.274125294 0.7153029999 0.8648035632
CELLS 0 0
CELL_TYPES 0
POINT_DATA 102
SCALARS GLOBAL_ID int 1
LOOKUP_TABLE default
0 
1 
2 
3 
4 
5 
6 
7 
8 
9 
10 
11 
12 
13 
14 
15 
16 
17 
18 
19 
20 
21 
22 
23 
24 
25 
26 
27 
28 
29 
30 
31 
32 
33 
34 
35 
36 
37 
38 
39 
40 
41 
42 
43 
44 
45 
46 
47 
48 
49 
50 
51 
52 
53 
54 
55 
56 
57 
58 
59 
60 
61 
62 
63 
64 
65 
66 
67 
68 
69 
70 
71 
72 
73 
74 
75 
76 
77 
78 
79 
80 
81 
82 
83 
84 
85 
86 
87 
88 
89 
90 
91 
92 
93 
94 
95 
96 
97 
98 
99 
100 
101 
SCALARS ID-NODES int 1
LOOKUP_TABLE default
0 
1 
2 
3 
4 
5 
6 
7 
8 
9 
10 
11 
12 
13 
14 
15 
16 
17 
18 
19 
20 
21 
22 
23 
24 
25 
26 
27 
28 
29 
30 
31 
32 
33 
34 
35 
36 
37 
38 
39 
40 
41 
42 
43 
44 
45 
46 
47 
48 
49 
50 
51 
52 
53 
54 
55 
56 
57 
58 
59 
60 
61 
62 
63 
64 
65 
66 
67 
68 
69 
70 
71 
72 
73 
74 
75 
76 
77 
78 
79 
80 
81 
82 
83 
84 
85 
86 
87 
88 
89 
90 
91 
92 
93 
94 
95 
96 
97 
98 
99 
100 
101 
SCALARS FLAGS int 1
LOOKUP_TABLE default
101 
101 
101 
101 
202 
202 
202 
202 
0 
0 
0 
0 
0 
0 
0 
0 
0 
0 
0 
0 
0 
0 
0 
0 
0 
0 
0 
0 
0 
0 
0 
0 
0 
0 
0 
0 
0 
0 
0 
0 
0 
0 
0 
0 
0 
0 
0 
0 
0 
0 
0 
0 
0 
0 
0 
0 
0 
0 
0 
0 
0 
0 
0 
0 
0 
0 
0 
0 
0 
0 
0 
0 
0 
0 
0 
0 
0 
0 
0 
0 
0 
0 
0 
0 
0 
0 
0 
0 
0 
0 
0 
0 
0 
0 
0 
0 
0 
0 
0 
0 
0 
0 
