# vtk DataFile Version 3.0
MOAB 5.0.1
ASCII
DATASET UNSTRUCTURED_GRID
POINTS 846 double
1 1 0
0.8620446046 1 0.2848936849
0.6248168945 0.8748168945 0
0.6907125566 0.8274375279 0.512364102
0.5994365696 0.626962327 0.344194462
1 1 0.5
1 0.6076353153 0.3922255904
0.6026315962 0.6658932164 0.3946689312
0.5596158954 0.685002594 0.4130912305
0.6668918638 0.5675939807 0.4341883557
0.7139544666 0.7559909395 0.5031524537
1 0.875 0
0.7647044817 0.7428252812 0.432168232
0.8127354779 0.9306333183 0.4917450311
0.5 1 0
1 0.5 0
1 1 0.125
1 0.5330729601 0.4667813856
0.9407786396 0.498275855 0.4357478268
0.940573031 1 0.5210207441
0.7120069248 0.4714455219 0.3631126306
0.6242675781 0.4992675781 0
1 0.4957917825 0.5040592833
0.6254739062 0.5430625805 0.1151351776
0.8231308804 0.5845114267 0.4370801988
0.6672893446 0.6641494605 0.4472491517
0.4990234375 0.4990234375 0
0.6729812123 0.7225967485 0.4581309911
1 1 0.375
1 1 0.25
0.875 1 0
0.75 1 0
0.625 1 0
1 0.625 0
1 0.75 0
0.6636968371 0.5286630913 0.3837138865
0.4718001688 0.6625092796 0.3798412078
0.5622486718 0.521043009 0.05756758878
0.4831839041 0.7794038555 0.4016048867
0.4615418567 0.7620382337 0.3306023669
0.4916621678 0.892265774 0.4071286869
0.6162890699 0.4703182545 0.5002558264
0.6181842952 0.5282560704 0.4417288155
0.6431865987 0.5646751311 0.2307176954
0.624472149 0.7068661684 0.2004086489
0.6199453665 0.7452813228 0.1747584453
0.6166644817 0.7451370299 0.06383477022
0.6833322408 0.8100685149 0.03191738511
0.5834863898 0.6680439932 0.2840737817
0.6181828537 0.682587106 0.1192966077
0.6289989316 0.6684510141 0.2260588526
0.8215180295 0.9742667532 0.3820591637
0.8467855759 0.9485335065 0.4189198328
0.8595198809 0.9485335065 0.4653517017
0.7159969131 0.7034873709 0.4397086918
0.7569701675 0.7368815619 0.4847301543
0.8721624469 0.9306333183 0.470724287
0.9189468498 0.9485335065 0.4443309576
0.9000464559 0.9742667532 0.4931862229
0.7495117188 0.4995117187 0
0.8747558594 0.4997558594 0
1 0.9112291232 0.4637369232
1 0.8224582465 0.4274738464
1 0.8038176577 0.5086127952
1 0.7057264865 0.4504191928
0.8749389648 0.8749389648 0
0.7498779297 0.8748779297 0
0.6246337891 0.7496337891 0
0.6244506836 0.6244506836 0
0.5133042153 0.9096313958 0.4781312067
0.6356573791 0.800153414 0.4874351299
0.5926416782 0.8192627916 0.5058574293
0.4736354838 0.9548156979 0.4642680954
0.9310223023 1 0.2049468424
0.7240892092 1 0.4447873698
0.7930669069 1 0.3648405273
0.5726608283 1 0.4243802425
0.6420078662 1 0.4113678717
0.7113549042 1 0.3983555008
0.5033137903 1 0.4373926133
0.4997558594 0.8747558594 0
0.8227333996 0.5252371245 0.3867415052
0.7607144933 0.5107834322 0.3555721707
1 0.4310547201 0.3500860392
0.9411761204 0.6321125124 0.4115307252
0.88195476 0.5973154073 0.3804971664
0.4834916881 1 0.112601246
0.4504750642 1 0.3378037381
0.4669833762 1 0.2252024921
0.6664943829 0.471038501 0.4211275597
1 0.6449164929 0.3549476928
1 0.5724582465 0.1774738464
1 0.5362291232 0.0887369232
1 0.6086873697 0.2662107696
0.8811460621 1 0.5420414882
0.8684117571 1 0.3706096193
0.8747789096 1 0.4563255538
0.8235283612 0.6810669065 0.4501409948
0.7337282575 0.8083281503 0.4939418027
0.776140869 0.8535124524 0.5134981895
0.7944381734 0.8920728853 0.5026216103
0.8006960013 0.8842398268 0.4483937597
0.5379738479 0.6676369722 0.3420887107
0.6874928125 0.5212871496 0.05756758878
1 0.5703541377 0.429503488
1 0.8840572808 0.1159342308
0.6914966864 0.5074575617 0.2101164395
0.88195476 0.5227530521 0.4550529616
0.7767439583 0.7892187727 0.4755195034
0.8316358718 0.9049000715 0.4428897658
0.8133385673 0.8663396386 0.453766345
0.8012990907 0.8199461471 0.4104150735
0.7830017862 0.7813857141 0.4212916527
0.9278387261 1 0.09958887521
0.8556774521 1 0.1991777504
0.7835161782 1 0.2987666256
0.5337353427 1 0.32804446
0.6169956212 1 0.3182851819
0.6613304141 1 0.2121901212
0.5641568951 1 0.2186963066
0.7002558997 1 0.3085259037
0.7585039331 1 0.2056839358
0.8167519666 1 0.1028419679
0.7056652071 1 0.1060950606
0.5945784476 1 0.1093481533
0.9342058785 1 0.3103048097
0.9373894548 1 0.4156627769
0.7368235142 1 0.4912192387
0.8026176356 1 0.430914429
0.8121683644 1 0.4969883307
0.7495578191 1 0.5376511076
0.6556856729 1 0.4805414618
0.5872821367 1 0.5162955539
0.6693634797 1 0.549715052
0.5188786005 1 0.552049646
0.4992675781 0.6242675781 0
0.4995117188 0.7495117188 0
0.7497558594 0.7497558594 0
0.7496337891 0.6246337891 0
0.8748168945 0.6248168945 0
0.8748779297 0.7498779297 0
1 0.5494764865 0.2941691928
1 0.4902656033 0.322127616
1 0.4913176577 0.1961127952
1 0.4331588288 0.0980563976
1 0.7336873697 0.3912107696
1 0.8931145616 0.2318684616
1 0.7862291232 0.2137369232
1 0.7681145616 0.1068684616
1 0.9021718424 0.3478026924
1 0.8043436848 0.3206053848
1 0.7065155273 0.2934080772
1 0.6793436848 0.1956053848
1 0.6521718424 0.0978026924
1 0.6777656033 0.509627616
1 0.9019088288 0.5668063976
1 0.6498047201 0.5688360392
0.8227333996 0.4879559469 0.4240194028
0.7635120392 0.4531588418 0.3929858439
0.9407786396 0.4609946774 0.4730257244
0.853262053 0.956366565 0.5195795523
0.7938350841 0.956366565 0.5406002964
0.788783435 0.8356122642 0.5188707748
0.4986862481 0.8943665422 0.5415640566
0.8429406577 0.5470035544 0.2558317655
0.8195383729 0.4863062351 0.3362670359
0.816740827 0.5439308255 0.2988533627
0.9049595639 0.5252281235 0.1982641767
0.9049595639 0.4889990003 0.1095272535
0.9669784702 0.5034526927 0.1406965879
0.9407786396 0.5728382102 0.3611920316
0.9379810937 0.5217754309 0.05756758878
0.7547219208 0.5294771332 0.2676840283
0.7575194666 0.4718525428 0.3050977015
0.9379810937 0.5942336774 0.2350414352
0.9049595639 0.5614572468 0.2870010999
0.6869303877 0.4895912116 0.1334363685
0.8121745283 0.4898353522 0.1334363685
0.7501556221 0.5116107831 0.1910039573
0.9669784702 0.4672235694 0.05195966473
0.9379810937 0.6304628006 0.3237783584
0.7507180468 0.5433067212 0.1151351776
0.7809217514 0.5325498621 0.2246624311
0.8787597333 0.5583845179 0.3300226972
0.8429406577 0.5107744312 0.1670948423
0.8759621874 0.5435508618 0.1151351776
0.8127369531 0.5215312903 0.05756758878
0.8485601302 0.7787623396 0.5185806872
0.9381229178 0.7221343145 0.439271731
0.9073840098 0.7542851425 0.4992755524
0.7927894532 0.7504989121 0.4728669185
0.8204751586 0.7710887086 0.4778820006
0.8516133328 0.7260217151 0.4535617837
0.9104372124 0.701544518 0.4342566489
0.8792990382 0.7466115116 0.4585768658
0.8227269682 0.8483690021 0.4696580063
0.8164691404 0.8562020607 0.5238858569
0.8441548458 0.8767918572 0.528900939
0.8235283612 0.7183480841 0.4128630972
0.8231308804 0.6217926043 0.3998023012
0.8823522408 0.6938708871 0.3935579624
0.969261092 0.6397861433 0.4522294118
0.938522184 0.709218149 0.4749553355
0.969261092 0.7658381977 0.4512145909
0.969261092 0.8546090745 0.4874776677
0.9594734249 0.9742667532 0.4721654788
0.9381229178 0.8109051913 0.4755348078
0.9073840098 0.8430560193 0.5355386292
0.9381229178 0.8996760681 0.5117978847
0.8106874915 0.8019755106 0.4263067349
0.8044296637 0.8098085692 0.4805345855
0.8602003407 0.8380719966 0.5262483541
0.8347664449 0.8947624936 0.5130092777
0.9377236516 0.9125922336 0.4761142802
0.8762458356 0.7993521361 0.5235957693
0.9688618258 0.9562961168 0.4880571401
0.9283352507 0.93056287 0.4602226189
0.8410242727 0.8869294351 0.4587814271
0.8815508478 0.9126626818 0.4866159483
0.8909392487 0.8946920454 0.5025076096
0.7950412628 0.8277792056 0.4646429242
0.7000467333 0.744569037 0.3795880115
0.8270120264 0.8288956243 0.370136969
0.8527249621 0.8378451015 0.3298588644
0.8453093309 0.8674560573 0.3592603898
0.828984796 0.8405359436 0.4154301557
0.6968517066 0.7056381476 0.3291135423
0.6906058557 0.7289231211 0.2798323593
0.6938008824 0.7678540105 0.3303068285
0.885835906 0.893189304 0.262094911
0.926362481 0.9189225508 0.1649294322
0.9594734249 0.9742667532 0.2221654788
0.7779257155 0.7983447054 0.2933277613
0.7522127798 0.7893952281 0.3336058659
0.7490177531 0.7504643387 0.2831313967
0.7412959438 0.7499486037 0.2070067238
0.8066894755 0.7450783197 0.2518563706
0.7747306888 0.759413816 0.2428532921
0.9334543111 0.9351905852 0.03191738511
0.8083322408 0.8100685149 0.03191738511
0.7672519896 0.7502275532 0.1635161087
0.8018388918 0.8293724643 0.1225956452
0.7687279479 0.7740282618 0.1903595986
0.8087147219 0.7903351914 0.3810135482
0.7767559352 0.8046706876 0.3720104697
0.8932515372 0.8635783483 0.2326933856
0.7398199855 0.7261478952 0.180163234
0.8021626929 0.783493474 0.2262061669
0.7732547305 0.7356131074 0.2160098023
0.6259481073 0.730666877 0.2272521388
0.6768813055 0.7430218319 0.1512139929
0.7338172446 0.740762341 0.1276695404
0.7383440272 0.7023471866 0.1533197441
0.8784202747 0.9228002597 0.4164964364
0.8472821005 0.8790963765 0.4045535765
0.6814080881 0.7046066775 0.1768641965
0.6828840464 0.7284073861 0.2037076864
0.6481441381 0.6663002373 0.3366540021
0.6321939583 0.7073819035 0.2765333218
0.7427719021 0.7737493122 0.2338502137
0.6843600047 0.7522080946 0.2305511762
0.7584586307 0.7661102547 0.3828870489
0.8936793035 0.9742667532 0.2824702885
0.9003433673 0.8798463828 0.09968133853
0.8669086223 0.8703811705 0.06383477022
0.7416644817 0.7451370299 0.06383477022
0.8003629334 0.8055717557 0.09575215533
0.6513391648 0.7052311267 0.3871284713
0.8006867346 0.7596927655 0.1993626771
0.8281818067 0.822569642 0.2914542606
0.8098845022 0.7840092091 0.3023308398
0.8036386512 0.8072941826 0.2530496568
0.6875550314 0.791138984 0.2810256454
0.8687083817 0.8483028888 0.1942887818
0.9668890561 0.9446557975 0.06776395342
0.6753629334 0.8055717557 0.09575215533
0.8337976784 0.815036968 0.1315987236
0.8672324234 0.8245021803 0.1674452919
0.9018193256 0.9036470913 0.1265248284
0.9189468498 0.9485335065 0.3193309576
0.8260043249 0.6183613566 0.5077626978
0.9411761204 0.5575501572 0.4860865204
0.7594461312 0.674176012 0.5423518574
0.7082625989 0.6975436516 0.4922706142
0.8848282045 0.5566029819 0.5257354607
0.5577218893 0.5594581634 0.03191738511
0.6272364189 0.6057567973 0.1705970151
0.6227096363 0.6441719517 0.1449468114
[...]
POINT_DATA 846
SCALARS GLOBAL_ID int 1
LOOKUP_TABLE default
3 
8 
9 
13 
16 
18 
24 
25 
26 
27 
33 
39 
53 
58 
62 
63 
64 
67 
75 
81 
85 
86 
88 
93 
96 
99 
100 
102 
139 
140 
141 
142 
143 
166 
167 
168 
171 
174 
175 
176 
177 
184 
185 
208 
225 
226 
227 
228 
229 
230 
231 
232 
233 
234 
235 
240 
328 
329 
330 
344 
345 
346 
347 
348 
349 
350 
351 
352 
353 
355 
356 
357 
359 
360 
366 
367 
368 
369 
370 
371 
378 
400 
401 
415 
421 
422 
424 
425 
426 
447 
474 
475 
476 
477 
489 
490 
491 
495 
506 
507 
508 
509 
510 
521 
522 
523 
528 
529 
530 
531 
532 
533 
534 
620 
621 
622 
623 
624 
625 
626 
627 
628 
629 
630 
631 
632 
633 
634 
635 
636 
637 
640 
641 
643 
644 
676 
677 
682 
683 
684 
685 
766 
767 
769 
771 
772 
773 
774 
775 
776 
777 
778 
779 
780 
782 
783 
786 
881 
882 
929 
1011 
1020 
1024 
1087 
1152 
1153 
1154 
1155 
1156 
1157 
1158 
1159 
1160 
1161 
1162 
1163 
1164 
1165 
1166 
1167 
1168 
1169 
1170 
1171 
1172 
1173 
1174 
1175 
1176 
1177 
1180 
1181 
1182 
1183 
1184 
1185 
1186 
1187 
1188 
1189 
1190 
1191 
1192 
1193 
1194 
1195 
1196 
1197 
1198 
1199 
1200 
1201 
1202 
1204 
1205 
1206 
1207 
1208 
1209 
1210 
1306 
1322 
1323 
1324 
1325 
1326 
1327 
1328 
1329 
1330 
1331 
1332 
1333 
1334 
1335 
1336 
1337 
1338 
1339 
1340 
1341 
1342 
1343 
1344 
1345 
1346 
1347 
1348 
1349 
1350 
1351 
1352 
1353 
1354 
1355 
1356 
1357 
1358 
1359 
1360 
1361 
1362 
1363 
1364 
1365 
1366 
1367 
1368 
1369 
1370 
1371 
1372 
1373 
1374 
1375 
1376 
1377 
1378 
1379 
1380 
1382 
1383 
1385 
1386 
1387 
1469 
1470 
1471 
1472 
1473 
1474 
1514 
1516 
1517 
1521 
1559 
1560 
1561 
1562 
1563 
1564 
1565 
1566 
1567 
1568 
1569 
1570 
1571 
1572 
1573 
1574 
1575 
1576 
1577 
1578 
1579 
1580 
1581 
1631 
1632 
1633 
1634 
1635 
1637 
1638 
1642 
1643 
1644 
1645 
1649 
1650 
1651 
1652 
1653 
1654 
1655 
1656 
1657 
1658 
1659 
1660 
1661 
1662 
1663 
1664 
1665 
1666 
1667 
1668 
1669 
1670 
1671 
1672 
1673 
1741 
1773 
1774 
1775 
1776 
1777 
1778 
1779 
1817 
1818 
1853 
1854 
1855 
1856 
1860 
1867 
1874 
1875 
1876 
1877 
2253 
2254 
2256 
2257 
2282 
2286 
2287 
2305 
2307 
2308 
2315 
2326 
2355 
2369 
2370 
2371 
2372 
2373 
2374 
2375 
2376 
2377 
2378 
2379 
2380 
2381 
2382 
2383 
2384 
2385 
2386 
2387 
2388 
2389 
2390 
2391 
2392 
2393 
2394 
2395 
2396 
2397 
2398 
2399 
2400 
2401 
2402 
2403 
2404 
2405 
2406 
2407 
2408 
2409 
2410 
2411 
2412 
2413 
2414 
2415 
2416 
2417 
2418 
2419 
2420 
2421 
2422 
2423 
2424 
2425 
2426 
2427 
2428 
2429 
2430 
2431 
2432 
2433 
2434 
2435 
2436 
2437 
2438 
2439 
2440 
2441 
2442 
2443 
2444 
2445 
2446 
2447 
2448 
2449 
2450 
2451 
2452 
2453 
2454 
2455 
2456 
2457 
2458 
2459 
2460 
2461 
2462 
2463 
2464 
2465 
2466 
2467 
2468 
2469 
2470 
2471 
2472 
2473 
2474 
2475 
2476 
2477 
2478 
2479 
2480 
2481 
2482 
2483 
2484 
2485 
2486 
2487 
2488 
2489 
2490 
2491 
2492 
2493 
2494 
2495 
2496 
2497 
2498 
2499 
2500 
2501 
2502 
2503 
2504 
2505 
2506 
2507 
2508 
2509 
2510 
2511 
2512 
2513 
2514 
2515 
2516 
2517 
2518 
2519 
2520 
2521 
2522 
2523 
2524 
2525 
2526 
2527 
2528 
2529 
2530 
2531 
2532 
2533 
2534 
2535 
2536 
2537 
2538 
2539 
2540 
2541 
2542 
2543 
2544 
2545 
2546 
2547 
2607 
2609 
2637 
2645 
2646 
2647 
2648 
2651 
2657 
2658 
2660 
2661 
2662 
2663 
2664 
2666 
2667 
2668 
2794 
2805 
2806 
2807 
2808 
2809 
2819 
2825 
2827 
3055 
3056 
3057 
3058 
3060 
3064 
3110 
3111 
3113 
3114 
3117 
3118 
3119 
3165 
3166 
3169 
3170 
3178 
3669 
3670 
3671 
3672 
3673 
3674 
3675 
3676 
3677 
3678 
3679 
3680 
3681 
3682 
3683 
3684 
3685 
3686 
3687 
3688 
3689 
3690 
3691 
3692 
3693 
3694 
3695 
3696 
3697 
3698 
3699 
3700 
3701 
3702 
3703 
3704 
3705 
3706 
3707 
3708 
3709 
3710 
3711 
3712 
3713 
3714 
3715 
3716 
3717 
3718 
3719 
3720 
3721 
3722 
3723 
3724 
3725 
3726 
3727 
3728 
3729 
3730 
3731 
3732 
3733 
3734 
3735 
3736 
3737 
3738 
3739 
3740 
3741 
3742 
3743 
3744 
3745 
3746 
3747 
3748 
3749 
3750 
3751 
3752 
3753 
3754 
3755 
3756 
3757 
3758 
3759 
3760 
3761 
3762 
3763 
3764 
3765 
3766 
3767 
3768 
3769 
3770 
3771 
3772 
3773 
3774 
3775 
3776 
3777 
3778 
3779 
3780 
3781 
3782 
3783 
3784 
3785 
3786 
3787 
3788 
3789 
3790 
3791 
3792 
3793 
3794 
3795 
3796 
3797 
3798 
3799 
3800 
3801 
3802 
3803 
3804 
3805 
3806 
3807 
3808 
3809 
3810 
3811 
3812 
3813 
3814 
3815 
3816 
3817 
3818 
3819 
3820 
3821 
3822 
3823 
3824 
3825 
3826 
3827 
3828 
3829 
3830 
3831 
3832 
3833 
3834 
3835 
4010 
4011 
4013 
4049 
4056 
4057 
4058 
4073 
4077 
4079 
4080 
4081 
4082 
4084 
4112 
4139 
4140 
4142 
4146 
4149 
4150 
4190 
4192 
4193 
4195 
4196 
4204 
4205 
4206 
4208 
4209 
4210 
4218 
4219 
4220 
4221 
4224 
4226 
4227 
4230 
4233 
4235 
4304 
4317 
4322 
4362 
4369 
4873 
4876 
4930 
4934 
4935 
4936 
4937 
4939 
4942 
4943 
4944 
4946 
4965 
4966 
4967 
4968 
4969 
5001 
5002 
5003 
5038 
SCALARS LOCAL_ID_L1 int 1
LOOKUP_TABLE default
0 
1 
2 
3 
4 
5 
6 
7 
8 
9 
10 
11 
12 
13 
14 
15 
16 
17 
18 
19 
20 
21 
22 
23 
24 
25 
26 
27 
28 
29 
30 
31 
32 
33 
34 
35 
36 
37 
38 
39 
40 
41 
42 
43 
44 
45 
46 
47 
48 
49 
50 
51 
52 
53 
54 
55 
56 
57 
58 
59 
60 
61 
62 
63 
64 
65 
66 
67 
68 
69 
70 
71 
72 
73 
74 
75 
76 
77 
78 
79 
80 
81 
82 
83 
84 
85 
86 
87 
88 
89 
90 
91 
92 
93 
94 
95 
96 
97 
98 
99 
100 
101 
102 
103 
104 
105 
106 
107 
108 
109 
110 
111 
112 
113 
114 
115 
116 
117 
118 
119 
120 
121 
122 
123 
124 
125 
126 
127 
128 
129 
130 
131 
132 
133 
134 
135 
136 
137 
138 
139 
140 
141 
142 
143 
144 
145 
146 
147 
148 
149 
150 
151 
152 
153 
154 
155 
156 
157 
158 
159 
160 
161 
162 
163 
164 
165 
166 
167 
168 
169 
170 
171 
172 
173 
174 
175 
176 
177 
178 
179 
180 
181 
182 
183 
184 
185 
186 
187 
188 
189 
190 
191 
192 
193 
194 
195 
196 
197 
198 
199 
200 
201 
202 
203 
204 
205 
206 
207 
208 
209 
210 
211 
212 
213 
214 
215 
216 
217 
218 
219 
220 
221 
222 
223 
224 
225 
226 
227 
228 
229 
230 
231 
232 
233 
234 
235 
236 
237 
238 
239 
240 
241 
242 
243 
244 
245 
246 
247 
248 
249 
250 
251 
252 
253 
254 
255 
256 
257 
258 
259 
260 
261 
262 
263 
264 
265 
266 
267 
268 
269 
270 
271 
272 
273 
274 
275 
276 
277 
278 
279 
280 
281 
282 
283 
284 
285 
286 
287 
288 
289 
290 
291 
292 
293 
294 
295 
296 
297 
298 
299 
300 
301 
302 
303 
304 
305 
306 
307 
308 
309 
310 
311 
312 
313 
314 
315 
316 
317 
318 
319 
320 
321 
322 
323 
324 
325 
326 
327 
328 
329 
330 
331 
332 
333 
334 
335 
336 
337 
338 
339 
340 
341 
342 
343 
344 
345 
346 
347 
348 
349 
350 
351 
352 
353 
354 
355 
356 
357 
358 
359 
360 
361 
362 
363 
364 
365 
366 
367 
368 
369 
370 
371 
372 
373 
374 
375 
376 
377 
378 
379 
380 
381 
382 
383 
384 
385 
386 
387 
388 
389 
390 
391 
392 
393 
394 
395 
396 
397 
398 
399 
400 
401 
402 
403 
404 
405 
406 
407 
408 
409 
410 
411 
412 
413 
414 
415 
416 
417 
418 
419 
420 
421 
422 
423 
424 
425 
426 
427 
428 
429 
430 
431 
432 
433 
434 
435 
436 
437 
438 
439 
440 
441 
442 
443 
444 
445 
446 
447 
448 
449 
450 
451 
452 
453 
454 
455 
456 
457 
458 
459 
460 
461 
462 
463 
464 
465 
466 
467 
468 
469 
470 
471 
472 
473 
474 
475 
476 
477 
478 
479 
480 
481 
482 
483 
484 
485 
486 
487 
488 
489 
490 
491 
492 
493 
494 
495 
496 
497 
498 
499 
500 
501 
502 
503 
504 
505 
506 
507 
508 
509 
510 
511 
512 
513 
514 
515 
516 
517 
518 
519 
520 
521 
522 
523 
524 
525 
526 
527 
528 
529 
530 
531 
532 
533 
534 
535 
536 
537 
538 
539 
540 
541 
542 
543 
544 
545 
546 
547 
548 
549 
550 
551 
552 
553 
554 
555 
556 
557 
558 
559 
560 
561 
562 
563 
564 
565 
566 
567 
568 
569 
570 
571 
572 
573 
574 
575 
576 
577 
578 
579 
580 
581 
582 
583 
584 
585 
586 
587 
588 
589 
590 
591 
592 
593 
594 
595 
596 
597 
598 
599 
600 
601 
602 
603 
604 
605 
606 
607 
608 
609 
610 
611 
612 
613 
614 
615 
616 
617 
618 
619 
620 
621 
622 
623 
624 
625 
626 
627 
628 
629 
630 
631 
632 
633 
634 
635 
636 
637 
638 
639 
640 
641 
642 
643 
644 
645 
646 
647 
648 
649 
650 
651 
652 
653 
654 
655 
656 
657 
658 
659 
660 
661 
662 
663 
664 
665 
666 
667 
668 
669 
670 
671 
672 
673 
674 
675 
676 
677 
678 
679 
680 
681 
682 
683 
684 
685 
686 
687 
688 
689 
690 
691 
692 
693 
694 
695 
696 
697 
698 
699 
700 
701 
702 
703 
704 
705 
706 
707 
708 
709 
710 
711 
712 
713 
714 
715 
716 
717 
718 
719 
720 
721 
722 
723 
724 
725 
726 
727 
728 
729 
730 
731 
732 
733 
734 
735 
736 
737 
738 
739 
740 
741 
742 
743 
744 
745 
746 
747 
748 
749 
750 
751 
752 
753 
754 
755 
756 
757 
758 
759 
760 
761 
762 
763 
764 
765 
766 
767 
768 
769 
770 
771 
772 
773 
774 
775 
776 
777 
778 
779 
780 
781 
782 
783 
784 
785 
786 
787 
788 
789 
790 
791 
792 
793 
794 
795 
796 
797 
798 
799 
800 
801 
802 
803 
804 
805 
806 
807 
808 
809 
810 
811 
812 
813 
814 
815 
816 
817 
818 
819 
820 
821 
822 
823 
824 
825 
826 
827 
828 
829 
830 
831 
832 
833 
834 
835 
836 
837 
838 
839 
840 
841 
842 
843 
844 
845 
CELL_DATA 7906
SCALARS GLOBAL_ID int 1
LOOKUP_TABLE default
96 
97 
98 
99 
100 
101 
102 
103 
104 
105 
106 
107 
108 
109 
110 
111 
112 
113 
114 
115 
116 
117 
118 
119 
120 
121 
122 
123 
124 
125 
126 
127 
232 
233 
234 
235 
236 
237 
238 
239 
240 
241 
242 
243 
244 
245 
246 
247 
248 
249 
250 
251 
252 
253 
254 
255 
256 
257 
258 
259 
260 
261 
262 
263 
264 
265 
266 
267 
268 
269 
270 
271 
272 
273 
274 
275 
276 
277 
278 
279 
280 
281 
282 
283 
284 
285 
425 
426 
427 
428 
429 
430 
431 
432 
433 
434 
435 
436 
437 
622 
623 
624 
625 
626 
627 
628 
629 
630 
631 
632 
633 
634 
635 
636 
637 
638 
639 
640 
641 
642 
643 
644 
645 
646 
647 
648 
649 
650 
651 
652 
653 
654 
655 
656 
657 
658 
659 
660 
661 
662 
663 
664 
665 
666 
667 
668 
669 
670 
671 
672 
673 
674 
675 
676 
677 
678 
679 
680 
681 
682 
683 
684 
685 
686 
687 
688 
689 
690 
691 
692 
693 
694 
695 
696 
767 
768 
769 
770 
771 
772 
773 
774 
775 
776 
777 
778 
779 
782 
788 
795 
796 
801 
802 
803 
804 
1039 
1040 
1041 
1042 
1043 
1044 
1045 
1046 
1047 
1048 
1049 
1050 
1051 
1052 
1053 
1054 
1055 
1056 
1057 
1058 
1059 
1060 
1061 
1062 
1063 
1064 
1065 
1066 
1067 
1068 
1069 
1070 
1071 
1072 
1073 
1074 
1075 
1076 
1077 
1078 
1079 
1080 
1081 
1082 
1083 
1084 
1085 
1086 
1087 
1088 
1089 
1090 
1091 
1092 
1093 
1094 
1095 
1096 
1097 
1098 
1099 
1100 
1101 
1102 
1103 
1104 
1105 
1106 
1107 
1108 
1109 
1110 
1111 
1112 
1113 
1114 
1115 
1116 
1117 
1118 
1119 
1120 
1121 
1122 
1123 
1124 
1125 
1126 
1127 
1128 
1129 
1130 
1131 
1132 
1133 
1134 
1135 
1136 
1137 
1138 
1139 
1140 
1141 
1142 
1143 
1144 
1145 
1146 
1147 
1148 
1149 
1150 
1151 
1152 
1153 
1154 
1155 
1156 
1157 
1160 
1161 
1162 
1164 
1165 
1166 
1167 
1168 
1169 
1170 
1171 
1172 
1173 
1174 
1175 
1176 
1177 
1178 
1179 
1180 
1181 
1182 
1183 
1184 
1185 
1186 
1187 
1188 
1189 
1190 
1191 
1192 
1193 
1194 
1195 
1196 
1197 
1198 
1199 
1200 
1201 
1202 
1203 
1204 
1205 
1206 
1207 
1208 
1209 
1210 
1211 
1212 
1213 
1214 
1215 
1216 
1217 
1218 
1219 
1220 
1221 
1222 
1223 
1224 
1225 
1226 
1227 
1228 
1229 
1230 
1231 
1232 
1233 
1234 
1235 
1236 
1237 
1528 
1529 
1530 
1531 
1532 
1533 
1534 
1535 
1536 
1537 
1538 
1539 
1540 
1541 
1545 
1546 
1547 
1551 
1552 
1564 
1565 
1567 
1568 
1574 
1880 
1881 
1882 
1883 
1884 
1885 
1886 
1887 
1888 
1889 
1890 
1891 
1892 
1893 
1894 
1895 
1896 
1897 
1898 
1899 
1900 
1901 
2169 
2209 
2212 
2218 
2528 
2529 
2530 
2531 
2532 
2533 
2534 
2535 
2536 
2537 
2538 
2539 
2540 
2541 
2542 
2543 
2544 
2545 
2546 
2547 
2548 
2549 
2550 
2551 
2552 
2553 
2554 
2555 
2556 
2557 
2558 
2559 
2560 
2561 
2562 
2563 
2564 
2565 
2566 
2567 
2568 
2569 
2570 
2571 
2572 
2573 
2574 
2575 
2576 
2577 
2578 
2579 
2580 
2581 
2582 
2583 
2584 
2585 
2586 
2587 
2588 
2589 
2590 
2591 
2592 
2593 
2594 
2595 
2596 
2597 
2598 
2599 
2600 
2601 
2602 
2603 
2604 
2605 
2606 
2607 
2807 
2808 
2809 
2810 
2811 
2812 
2813 
2814 
2815 
2816 
2817 
2818 
2819 
2820 
2821 
2822 
2823 
2824 
2825 
2826 
2827 
2828 
2829 
2830 
2831 
2832 
2838 
2839 
2840 
2841 
2849 
2854 
2855 
2856 
2857 
2858 
2859 
2860 
2861 
2862 
2863 
2864 
2865 
2866 
2867 
2868 
2870 
2871 
3016 
3017 
3018 
3019 
3020 
3021 
3022 
3023 
3024 
3025 
3026 
3027 
3028 
3029 
3038 
3041 
3043 
3044 
3049 
3050 
3051 
3052 
3053 
3054 
3055 
3056 
3057 
3058 
3059 
3060 
3061 
3066 
3071 
3072 
3073 
3074 
3075 
3076 
3081 
3082 
3083 
3084 
3085 
3086 
3087 
3088 
3089 
3090 
3091 
3092 
3093 
3094 
3095 
3096 
3097 
3098 
3099 
3100 
3101 
3102 
3191 
3194 
3200 
3201 
3202 
3203 
3204 
3205 
3206 
3207 
3208 
3209 
3210 
3211 
3217 
3219 
3220 
3221 
3222 
3223 
3224 
3225 
3226 
3227 
3228 
3229 
3230 
3232 
3236 
3237 
3238 
3239 
3540 
3541 
3542 
3543 
3544 
3545 
3547 
3549 
3550 
3551 
3552 
3553 
3556 
3557 
3561 
3789 
3790 
3791 
3796 
3797 
3800 
3801 
3809 
3819 
3820 
3919 
3920 
3922 
3923 
3924 
3937 
3942 
3945 
3947 
3948 
3950 
3951 
3953 
3954 
3955 
3956 
3957 
3977 
3978 
3979 
3980 
3981 
3982 
3983 
3984 
3985 
3986 
3987 
3988 
3989 
3990 
3991 
3992 
3993 
3994 
3995 
3996 
3997 
4009 
4010 
4011 
4012 
4384 
4385 
4386 
4387 
4388 
4389 
4390 
4391 
4392 
4393 
4394 
4395 
4396 
4397 
4398 
4399 
4400 
4401 
4402 
4403 
4404 
4405 
4406 
4407 
4408 
4409 
4410 
4411 
4412 
4413 
4414 
4415 
4416 
4417 
4418 
4419 
4420 
4421 
4422 
4423 
4424 
4425 
4426 
4427 
4428 
4429 
4430 
4431 
4432 
4433 
4434 
4435 
4436 
4437 
4438 
4439 
4440 
4441 
4442 
4443 
4444 
4445 
4446 
4447 
4448 
4449 
4453 
4454 
4456 
4457 
4533 
4534 
4535 
4536 
4537 
4538 
4539 
4540 
4541 
4542 
4543 
4544 
4545 
4546 
4547 
4548 
4549 
4550 
4551 
4552 
4553 
4554 
4555 
4556 
4557 
4558 
4559 
4560 
4561 
4562 
4563 
4564 
4565 
4566 
4567 
4568 
4569 
4570 
4571 
4572 
4573 
4574 
4575 
4576 
4577 
4578 
4579 
4580 
4581 
4582 
4583 
4584 
4585 
4586 
4587 
4588 
4589 
4590 
4591 
4682 
4683 
4684 
4685 
4686 
4687 
4688 
4689 
4690 
4691 
4692 
4693 
4694 
4695 
4696 
4697 
4698 
4699 
4700 
4701 
4702 
4703 
4704 
4705 
4706 
4707 
4708 
4709 
4710 
4711 
4712 
4713 
4714 
4720 
4722 
4723 
4724 
4735 
4738 
4741 
4742 
4743 
4744 
4746 
4779 
4780 
4781 
4782 
4783 
4784 
4785 
4786 
4787 
4788 
4789 
4790 
4791 
4792 
4793 
4794 
4795 
4796 
4797 
4798 
5430 
5431 
5432 
5433 
5434 
5435 
5436 
5437 
5438 
5439 
5440 
5441 
5442 
5443 
5444 
5445 
5446 
5447 
5448 
5449 
5450 
5451 
5452 
5453 
5454 
5455 
5456 
5457 
5458 
5459 
5460 
5461 
5462 
5463 
5464 
5465 
5466 
5467 
5468 
5469 
5470 
5471 
5472 
5473 
5474 
5475 
5476 
5477 
5478 
5479 
5480 
5481 
5482 
5483 
5484 
5485 
5486 
5487 
5488 
5489 
5490 
5491 
5492 
5493 
5494 
5495 
5496 
5497 
5498 
5499 
5500 
5501 
5502 
5503 
5504 
5505 
5506 
5507 
5508 
5509 
5510 
5511 
5512 
5513 
5514 
5515 
5516 
5517 
5518 
5519 
5520 
5521 
5522 
5523 
5524 
5525 
5526 
5859 
5860 
5861 
5862 
5863 
5864 
5865 
5866 
5867 
5868 
5869 
5870 
5871 
5872 
5873 
5874 
5875 
5876 
5877 
5878 
5879 
5880 
5881 
5882 
5883 
5884 
5885 
5886 
5887 
5888 
5889 
5890 
5891 
5892 
5893 
5894 
5895 
5896 
5897 
5898 
5899 
5900 
5901 
5902 
5903 
5904 
5905 
5906 
5907 
5908 
5909 
5910 
5911 
5912 
5913 
5914 
5915 
5916 
5917 
5918 
5919 
5920 
5921 
5979 
5985 
5986 
5987 
5988 
5989 
5991 
5992 
5993 
6003 
6004 
6020 
6027 
6108 
6110 
6111 
6112 
6113 
6114 
6120 
6121 
6122 
6123 
6124 
6125 
6126 
6127 
6128 
6129 
6130 
6131 
6132 
6133 
6134 
6135 
6136 
6144 
6145 
6146 
6147 
6148 
6149 
6150 
6151 
6152 
6153 
6159 
6160 
6161 
6162 
6163 
6164 
6165 
6166 
6174 
6176 
6177 
6183 
6185 
6186 
6187 
6188 
6191 
6192 
6194 
6195 
6196 
6197 
6203 
6204 
6205 
6206 
6208 
6229 
6230 
6232 
6233 
6234 
6235 
6236 
6242 
6243 
6244 
6245 
6246 
6247 
6248 
6249 
6250 
6251 
6252 
6253 
6254 
6255 
6256 
6257 
6258 
6259 
6260 
6261 
6262 
6263 
6264 
6265 
6275 
6323 
6543 
6544 
6545 
6581 
6582 
6583 
6584 
6588 
6589 
6590 
6591 
6592 
6593 
6598 
6599 
6600 
6606 
6607 
6608 
6609 
6610 
6611 
6612 
6613 
6614 
6615 
6616 
6617 
6621 
6622 
6623 
6624 
7639 
7640 
7641 
7642 
7643 
7644 
7645 
7646 
7647 
7648 
7649 
7650 
7651 
7652 
7653 
7654 
7655 
7656 
7657 
7658 
7659 
7820 
8224 
8225 
8226 
8227 
8228 
8229 
8230 
8231 
8232 
8233 
8234 
8235 
8236 
8237 
8238 
8239 
8240 
8241 
8242 
8243 
8244 
8245 
8246 
8247 
8248 
8249 
8250 
8251 
8252 
8253 
8254 
8255 
8256 
8257 
8258 
8259 
8260 
8261 
8262 
8263 
8264 
8265 
8266 
8267 
8268 
8269 
8270 
8271 
8272 
8273 
8274 
8275 
8276 
8277 
8278 
8279 
8280 
8281 
8282 
8283 
8284 
8285 
8286 
8287 
8288 
8289 
8290 
8291 
8292 
8293 
8294 
8295 
8296 
8297 
8298 
8299 
8300 
8301 
8302 
8303 
8304 
8305 
8306 
8307 
8308 
8309 
8310 
8311 
8312 
8313 
8314 
8315 
8316 
8317 
8318 
8319 
8320 
8321 
8322 
8323 
8324 
8325 
8326 
8327 
8328 
8329 
8330 
8331 
8332 
8333 
8334 
8335 
8336 
8337 
8338 
8339 
8340 
8341 
8342 
8343 
8344 
8345 
8346 
8347 
8348 
8349 
8350 
8351 
8352 
8353 
8354 
8355 
8356 
8357 
8358 
8359 
8360 
8361 
8362 
8363 
8364 
8365 
8366 
8367 
8368 
8369 
8370 
8371 
8372 
8373 
8374 
8375 
8376 
8377 
8378 
8379 
8380 
8381 
8382 
8383 
8384 
8385 
8386 
8387 
8388 
8389 
8390 
8391 
8392 
8393 
8394 
8395 
8396 
8397 
8398 
8399 
8400 
8401 
8402 
8403 
8404 
8405 
8406 
8407 
8408 
8409 
8410 
8411 
8412 
8413 
8414 
8415 
8416 
8417 
8418 
8419 
8420 
8421 
8422 
8423 
8424 
8425 
8426 
8427 
8428 
8429 
8430 
8431 
8432 
8433 
8434 
8435 
8436 
8437 
8438 
8439 
8440 
8441 
8442 
8443 
8444 
8445 
8446 
8447 
8448 
8449 
8450 
8451 
8452 
8453 
8454 
8455 
8456 
8457 
8458 
8459 
8460 
8461 
8462 
8463 
8464 
8465 
8466 
8467 
8468 
8469 
8470 
8471 
8472 
8473 
8474 
8475 
8476 
8477 
8478 
8479 
8480 
8481 
8482 
8483 
8484 
8485 
8486 
8487 
8488 
8489 
8490 
8491 
8492 
8493 
8494 
8495 
8496 
8497 
8498 
8499 
8500 
8501 
8502 
8503 
8504 
8505 
8506 
8507 
8508 
8509 
8510 
8511 
8512 
8513 
8514 
8515 
8516 
8517 
8518 
8519 
8520 
8521 
8522 
8523 
8524 
8525 
8526 
8527 
8528 
8529 
8530 
8531 
8532 
8533 
8534 
8535 
8536 
8537 
8538 
8539 
8540 
8541 
8542 
8543 
8544 
8545 
8546 
8547 
8548 
8549 
8550 
8551 
8552 
8553 
8554 
8555 
8556 
8557 
8558 
8559 
8560 
8561 
8562 
8563 
8564 
8565 
8566 
8567 
8568 
8569 
8570 
8571 
8572 
8573 
8574 
8575 
8576 
8577 
8578 
8579 
8580 
8581 
8582 
8583 
8584 
8585 
8586 
8587 
8590 
8591 
8592 
8593 
8594 
8596 
8597 
8598 
8599 
8600 
8601 
8602 
8603 
8604 
8605 
8606 
8607 
8608 
8609 
8610 
8611 
8612 
8613 
8614 
8615 
8616 
8617 
8618 
8619 
8620 
8621 
8622 
8623 
8624 
8625 
8626 
8627 
8628 
8629 
8630 
8775 
8776 
8777 
8778 
8779 
8784 
8786 
8787 
8788 
8789 
8790 
8794 
8795 
8797 
8798 
8801 
8803 
10898 
10908 
10910 
11753 
11754 
11755 
11756 
11757 
11758 
11759 
11760 
11761 
11762 
11763 
11764 
11765 
11766 
11767 
11768 
11769 
11770 
11771 
11772 
11773 
11774 
11775 
11776 
11777 
11778 
11779 
11780 
11781 
11782 
11783 
11784 
11797 
11798 
11799 
11800 
11801 
11802 
11803 
11804 
11805 
11806 
11807 
11808 
11809 
11810 
11811 
11812 
11813 
11814 
11815 
11816 
11817 
11818 
11819 
11820 
11821 
11822 
11823 
11824 
11825 
11826 
11827 
11828 
11829 
11830 
11843 
11844 
11845 
11846 
12261 
12262 
12263 
12264 
12265 
12266 
12267 
12268 
12269 
12270 
12271 
12281 
12282 
12285 
12286 
12287 
12288 
12289 
12290 
12291 
12292 
12293 
12301 
12302 
12303 
12304 
12305 
12306 
12307 
12308 
12309 
12310 
12311 
12312 
12313 
12314 
12315 
12316 
12317 
12318 
12319 
12320 
12321 
12322 
12323 
12325 
12326 
12327 
12328 
12329 
12330 
12331 
12332 
12333 
12334 
12335 
12336 
12337 
12338 
12339 
12340 
12341 
12342 
12343 
12344 
12345 
12346 
12347 
12348 
12349 
12350 
12351 
12352 
12353 
12358 
12365 
12366 