# vtk DataFile Version 3.0
MOAB 5.0.1
ASCII
DATASET UNSTRUCTURED_GRID
POINTS 67 double
-1 -0.4 0
-1 -0.4 0.1
-0.8 -0.4125 0
-0.8 -0.4125 0.1
-0.6 -0.425 0
-1.222228092 -0.3325878455 0
-1.153073372 -0.3695518134 0
-1.078036128 -0.3923141123 0
-0.6 -0.425 0.1
-1.078036129 -0.3923141121 0.1
-1.153073374 -0.3695518125 0.1
-1.222228094 -0.3325878442 0.1
-1 -0.4 0.025
-1 -0.4 0.05
-1 -0.4 0.075
-1 -0.3 0.025
-1 -0.3 0.05
-0.8763116554 -0.3512333901 0.1
-0.7526233108 -0.3024667803 0.1
-0.8 -0.4125 0.025
-0.8 -0.4125 0.05
-0.8 -0.4125 0.075
-0.8754845318 -0.3539820895 0
-1 -0.325 0
-1 -0.375 0
-0.9469669913 -0.3530330085 0
-1.147247364 -0.330486585 0
-1.076536686 -0.3597759067 0
-1.070710678 -0.3207106783 0
-1 -0.35 0
-0.9469669913 -0.3280330085 0
-0.6754845318 -0.3664820895 0
-0.4754845318 -0.3789820895 0
-0.7509690636 -0.3079641789 0
-0.5509690636 -0.3204641789 0
-0.6 -0.425 0.025
-0.6 -0.425 0.075
-0.6 -0.425 0.05
-1.078036129 -0.3923141122 0.075
-1.222228093 -0.3325878453 0.025
-1.153073372 -0.3695518133 0.025
-1.078036128 -0.3923141123 0.025
-1.153073373 -0.3695518128 0.075
-1.222228094 -0.3325878445 0.075
-1.078036129 -0.3923141122 0.05
-1.222228093 -0.332587845 0.05
-1.153073373 -0.3695518132 0.05
-0.9414729037 -0.2942355842 0.075
-0.9414729036 -0.2942355842 0.05
-0.8851949708 -0.27716386 0.05
-1.058527096 -0.2942355841 0.05
-0.4763116554 -0.3762333901 0.1
-0.6763116554 -0.3637333901 0.1
-1 -0.375 0.1
-0.9469669916 -0.3530330088 0.1
-1 -0.325 0.1
-1.076536687 -0.3597759063 0.1
-1.147247365 -0.3304865841 0.1
-1 -0.35 0.1
-1.070710678 -0.3207106779 0.1
-0.9469669916 -0.3280330088 0.1
-1.036065699 -0.366181189 0.0125000004
-1.036051951 -0.3483793294 0.06300950183
-1.101978245 -0.334060269 0.046242396
-1.169502234 -0.3084755849 0.04603179688
-0.9637563132 -0.3625 0.0625
-1.040984825 -0.3816269624 0.02718058433
CELLS 139 695
4 24 29 27 61
4 56 59 58 62
4 59 55 58 62
4 28 27 29 61
4 16 29 62 61
4 62 63 50 61
4 20 13 14 65
4 56 58 53 62
4 62 44 63 61
4 12 0 22 2
4 22 19 12 2
4 28 63 27 61
4 57 59 56 63
4 23 29 15 61
4 1 17 3 21
4 59 62 56 63
4 12 22 25 65
4 23 28 29 61
4 62 66 44 61
4 56 42 57 63
4 16 29 65 62
4 0 12 22 25
4 20 17 22 65
4 40 44 41 63
4 40 46 44 63
4 9 53 38 62
4 57 42 43 64
4 38 42 56 63
4 65 62 29 61
4 9 56 53 62
4 10 57 56 42
4 10 11 57 43
4 43 57 10 42
4 9 38 56 62
4 9 10 56 42
4 38 9 56 42
4 28 26 27 63
4 39 46 40 64
4 39 45 46 64
4 6 26 5 64
4 6 5 40 64
4 45 43 42 64
4 39 40 5 64
4 45 42 46 64
4 38 44 46 63
4 41 6 40 63
4 46 42 38 63
4 6 27 26 63
4 16 65 58 62
4 25 48 30 65
4 24 65 29 61
4 30 29 24 65
4 40 64 46 63
4 30 24 25 65
4 13 44 62 66
4 53 58 60 65
4 44 38 14 62
4 12 7 41 66
4 13 66 62 61
4 53 14 38 62
4 13 62 65 61
4 58 14 53 62
4 9 53 1 38
4 44 13 41 66
4 60 54 53 65
4 13 58 65 62
4 13 65 24 61
4 44 14 13 62
4 53 14 58 65
4 13 14 58 62
4 14 1 53 38
4 12 41 13 66
4 24 12 25 65
4 1 53 54 65
4 0 12 25 24
4 24 13 12 65
4 14 13 58 65
4 1 14 53 65
4 65 47 58 60
4 65 1 17 54
4 21 20 65 17
4 65 20 21 14
4 65 1 21 17
4 21 1 65 14
4 20 65 19 13
4 20 19 65 22
4 12 19 65 13
4 12 65 19 22
4 7 24 12 0
4 65 54 47 60
4 29 30 16 65
4 63 38 62 56
4 63 62 38 44
4 64 42 63 57
4 64 63 42 46
4 64 6 63 40
4 64 63 6 26
4 27 41 6 7
4 6 41 27 63
4 61 24 7 27
4 41 61 7 27
4 41 7 61 66
4 44 41 61 66
4 25 49 65 22
4 17 65 49 22
4 41 63 61 27
4 41 61 63 44
4 61 7 12 66
4 12 7 61 24
4 12 13 61 66
4 61 13 12 24
4 54 65 49 17
4 34 33 31 52
4 31 22 2 19
4 31 32 35 4
4 19 4 31 35
4 19 4 2 31
4 51 52 36 8
4 52 17 21 3
4 36 3 8 52
4 36 21 3 52
4 35 20 31 19
4 37 21 36 52
4 21 37 20 52
4 31 33 20 52
4 52 33 20 18
4 32 31 35 34
4 20 35 52 37
4 20 52 35 31
4 34 52 35 37
4 34 35 52 31
4 52 37 51 36
4 22 31 20 19
4 22 20 31 33
4 17 52 20 18
4 17 20 52 21
4 51 52 34 37
4 33 18 17 20
4 17 22 33 20
CELL_TYPES 139
10
10
10
10
10
10
10
10
10
10
10
10
10
10
10
10
10
10
10
10
10
10
10
10
10
10
10
10
10
10
10
10
10
10
10
10
10
10
10
10
10
10
10
10
10
10
10
10
10
10
10
10
10
10
10
10
10
10
10
10
10
10
10
10
10
10
10
10
10
10
10
10
10
10
10
10
10
10
10
10
10
10
10
10
10
10
10
10
10
10
10
10
10
10
10
10
10
10
10
10
10
10
10
10
10
10
10
10
10
10
10
10
10
10
10
10
10
10
10
10
10
10
10
10
10
10
10
10
10
10
10
10
10
10
10
10
10
10
10
POINT_DATA 67
SCALARS GLOBAL_ID int 1
LOOKUP_TABLE default
11 
25 
59 
86 
97 
113 
114 
115 
233 
234 
235 
236 
313 
314 
315 
321 
322 
534 
537 
590 
591 
592 
593 
695 
696 
697 
704 
705 
712 
713 
714 
795 
796 
849 
850 
1058 
1064 
1066 
1077 
1079 
1081 
1082 
1083 
1084 
1085 
1087 
1088 
1120 
1121 
1122 
1140 
1381 
1382 
1480 
1481 
1482 
1490 
1491 
1497 
1498 
1499 
2172 
2173 
2175 
2178 
2179 
2180 
SCALARS LOCAL_ID_L1 int 1
LOOKUP_TABLE default
0 
1 
2 
3 
0 
10 
6 
7 
9 
9 
10 
25 
12 
13 
14 
38 
39 
52 
53 
19 
20 
21 
61 
71 
24 
72 
79 
27 
86 
87 
88 
31 
13 
97 
20 
25 
30 
31 
38 
131 
40 
41 
42 
133 
44 
135 
46 
145 
146 
147 
160 
48 
44 
53 
170 
171 
56 
179 
185 
186 
187 
244 
245 
247 
250 
251 
66 
CELL_DATA 139
SCALARS GLOBAL_ID int 1
LOOKUP_TABLE default
623 
636 
642 
651 
697 
706 
724 
725 
731 
739 
743 
757 
759 
760 
763 
768 
783 
787 
790 
793 
795 
799 
802 
808 
809 
816 
817 
819 
827 
828 
832 
841 
842 
843 
844 
845 
852 
853 
854 
855 
859 
860 
861 
862 
863 
864 
865 
875 
877 
886 
894 
899 
910 
914 
916 
919 
920 
921 
923 
926 
927 
928 
929 
930 
931 
932 
933 
936 
937 
939 
940 
941 
942 
943 
944 
945 
946 
947 
990 
1004 
1007 
1008 
1009 
1010 
1013 
1014 
1015 
1016 
1017 
1018 
1026 
1027 
1028 
1029 
1030 
1031 
1032 
1040 
1041 
1064 
1065 
1066 
1067 
1090 
1092 
1109 
1110 
1111 
1112 
1113 
1114 
1121 
1756 
2051 
2052 
2077 
2079 
2176 
2177 
2188 
2189 
2304 
2333 
2335 
2871 
2872 
2921 
3026 
3027 
3028 
3029 
3105 
3126 
3127 
3166 
3167 
3209 
3229 
3231 
SCALARS Partition int 1
LOOKUP_TABLE default
0 
0 
0 
0 
0 
0 
0 
0 
0 
0 
0 
0 
0 
0 
0 
0 
0 
0 
0 
0 
0 
0 
0 
0 
0 
0 
0 
0 
0 
0 
0 
0 
0 
0 
0 
0 
0 
0 
0 
0 
0 
0 
0 
0 
0 
0 
0 
0 
0 
0 
0 
0 
0 
0 
0 
0 
0 
0 
0 
0 
0 
0 
0 
0 
0 
0 
0 
0 
0 
0 
0 
0 
0 
0 
0 
0 
0 
0 
0 
0 
0 
0 
0 
0 
0 
0 
0 
0 
0 
0 
0 
0 
0 
0 
0 
0 
0 
0 
0 
0 
0 
0 
0 
0 
0 
0 
0 
0 
0 
0 
0 
0 
0 
0 
0 
0 
0 
0 
0 
0 
0 
0 
0 
0 
0 
0 
0 
0 
0 
0 
0 
0 
0 
0 
0 
0 
0 
0 
0 
SCALARS LOCAL_ID_L1 int 1
LOOKUP_TABLE default
0 
1 
2 
3 
4 
5 
6 
7 
8 
9 
10 
11 
12 
13 
14 
15 
16 
17 
18 
19 
20 
21 
22 
23 
24 
25 
26 
27 
28 
29 
30 
31 
32 
33 
34 
35 
36 
37 
38 
39 
40 
41 
42 
43 
44 
45 
46 
47 
48 
49 
50 
51 
52 
53 
54 
55 
56 
57 
58 
59 
60 
61 
62 
63 
64 
65 
66 
67 
68 
69 
70 
71 
72 
73 
74 
75 
76 
77 
78 
79 
80 
81 
82 
83 
84 
85 
86 
87 
88 
89 
90 
91 
92 
93 
94 
95 
96 
97 
98 
99 
100 
101 
102 
103 
104 
105 
106 
107 
108 
109 
110 
111 
112 
113 
114 
115 
116 
117 
118 
119 
120 
121 
122 
123 
124 
125 
126 
127 
128 
129 
130 
131 
132 
133 
134 
135 
136 
137 
138 
