# vtk DataFile Version 3.0
MOAB 5.0.1
ASCII
DATASET UNSTRUCTURED_GRID
POINTS 729 double
0 0 0
8 0 0
0 8 0
8 8 0
0 0 8
8 0 8
0 8 8
8 8 8
1.000000002 0 8
2.000000005 0 8
3.000000008 0 8
4.000000011 0 8
5.000000008 0 8
6.000000005 0 8
7.000000003 0 8
8 0 6.999999999
8 0 5.999999993
8 0 4.999999987
8 0 3.999999981
8 0 2.999999985
8 0 1.99999999
8 0 0.9999999951
6.999999999 0 0
5.999999993 0 0
4.999999987 0 0
3.999999981 0 0
2.999999985 0 0
1.99999999 0 0
0.9999999951 0 0
0 0 1.000000002
0 0 2.000000005
0 0 3.000000008
0 0 4.000000011
0 0 5.000000008
0 0 6.000000005
0 0 7.000000003
0 1.000000002 8
0 2.000000005 8
0 3.000000008 8
0 4.000000011 8
0 5.000000008 8
0 6.000000005 8
0 7.000000003 8
1.000000002 8 8
2.000000005 8 8
3.000000008 8 8
4.000000011 8 8
5.000000008 8 8
6.000000005 8 8
7.000000003 8 8
8 8 6.999999999
8 8 5.999999993
8 8 4.999999987
8 8 3.999999981
8 8 2.999999985
8 8 1.99999999
8 8 0.9999999951
6.999999999 8 0
5.999999993 8 0
4.999999987 8 0
3.999999981 8 0
2.999999985 8 0
1.99999999 8 0
0.9999999951 8 0
0 8 1.000000002
0 8 2.000000005
0 8 3.000000008
0 8 4.000000011
0 8 5.000000008
0 8 6.000000005
0 8 7.000000003
0 6.999999999 0
0 5.999999993 0
0 4.999999987 0
0 3.999999981 0
0 2.999999985 0
0 1.99999999 0
0 0.9999999951 0
8 1.000000002 8
8 2.000000005 8
8 3.000000008 8
8 4.000000011 8
8 5.000000008 8
8 6.000000005 8
8 7.000000003 8
8 1.000000002 0
8 2.000000005 0
8 3.000000008 0
8 4.000000011 0
8 5.000000008 0
8 6.000000005 0
8 7.000000003 0
1.000000002 1.000000002 8
1.000000002 2.000000005 8
1.000000002 3.000000008 8
1.000000002 4.000000011 8
1.000000002 5.000000008 8
1.000000002 6.000000005 8
1.000000002 7.000000003 8
2.000000005 1.000000002 8
2.000000005 2.000000005 8
2.000000005 3.000000008 8
2.000000005 4.000000011 8
2.000000005 5.000000008 8
2.000000005 6.000000005 8
2.000000005 7.000000003 8
3.000000008 1.000000002 8
3.000000008 2.000000005 8
3.000000008 3.000000008 8
3.000000008 4.000000011 8
3.000000008 5.000000008 8
3.000000008 6.000000005 8
3.000000008 7.000000003 8
4.000000011 1.000000002 8
4.000000011 2.000000005 8
4.000000011 3.000000008 8
4.000000011 4.000000011 8
4.000000011 5.000000008 8
4.000000011 6.000000005 8
4.000000011 7.000000003 8
5.000000008 1.000000002 8
5.000000008 2.000000005 8
5.000000008 3.000000008 8
5.000000008 4.000000011 8
5.000000008 5.000000008 8
5.000000008 6.000000005 8
5.000000008 7.000000003 8
6.000000005 1.000000002 8
6.000000005 2.000000005 8
6.000000005 3.000000008 8
6.000000005 4.000000011 8
6.000000005 5.000000008 8
6.000000005 6.000000005 8
6.000000005 7.000000003 8
7.000000003 1.000000002 8
7.000000003 2.000000005 8
7.000000003 3.000000008 8
7.000000003 4.000000011 8
7.000000003 5.000000008 8
7.000000003 6.000000005 8
7.000000003 7.000000003 8
0 1.000000002 7.000000003
0 1.000000001 6.000000005
0 0.9999999997 5.000000008
0 0.9999999988 4.000000011
0 0.9999999979 3.000000008
0 0.999999997 2.000000005
0 0.9999999961 1.000000002
0 2.000000003 7.000000003
0 2.000000002 6.000000005
0 2 5.000000008
0 1.999999998 4.000000011
0 1.999999996 3.000000008
0 1.999999994 2.000000005
0 1.999999992 1.000000002
0 3.000000005 7.000000003
0 3.000000002 6.000000005
0 3 5.000000008
0 2.999999997 4.000000011
0 2.999999994 3.000000008
0 2.999999991 2.000000005
0 2.999999988 1.000000002
0 4.000000007 7.000000003
0 4.000000003 6.000000005
0 4 5.000000008
0 3.999999996 4.000000011
0 3.999999992 3.000000008
0 3.999999988 2.000000005
0 3.999999985 1.000000002
0 5.000000006 7.000000003
0 5.000000003 6.000000005
0 5 5.000000008
0 4.999999998 4.000000011
0 4.999999995 3.000000008
0 4.999999992 2.000000005
0 4.999999989 1.000000002
0 6.000000004 7.000000003
0 6.000000002 6.000000005
0 6.000000001 5.000000008
0 5.999999999 4.000000011
0 5.999999998 3.000000008
0 5.999999996 2.000000005
0 5.999999995 1.000000002
0 7.000000002 7.000000003
0 7.000000002 6.000000005
0 7.000000001 5.000000008
0 7.000000001 4.000000011
0 7.000000001 3.000000008
0 7 2.000000005
0 7 1.000000002
1.000000002 8 7.000000002
1.000000001 8 6.000000004
0.9999999997 8 5.000000006
0.9999999988 8 4.000000007
0.9999999979 8 3.000000005
0.999999997 8 2.000000003
0.9999999961 8 1.000000002
2.000000003 8 7.000000002
2.000000002 8 6.000000002
2 8 5.000000003
1.999999998 8 4.000000003
1.999999996 8 3.000000002
1.999999994 8 2.000000002
1.999999992 8 1.000000001
3.000000005 8 7.000000001
3.000000002 8 6.000000001
3 8 5
2.999999997 8 4
2.999999994 8 3
2.999999991 8 2
2.999999988 8 0.9999999997
4.000000007 8 7.000000001
4.000000003 8 5.999999999
4 8 4.999999998
3.999999996 8 3.999999996
3.999999992 8 2.999999997
3.999999988 8 1.999999998
3.999999985 8 0.9999999988
5.000000006 8 7.000000001
5.000000003 8 5.999999998
5 8 4.999999995
4.999999998 8 3.999999992
4.999999995 8 2.999999994
4.999999992 8 1.999999996
4.999999989 8 0.9999999979
6.000000004 8 7
6.000000002 8 5.999999996
6.000000001 8 4.999999992
5.999999999 8 3.999999988
5.999999998 8 2.999999991
5.999999996 8 1.999999994
5.999999995 8 0.999999997
7.000000002 8 7
7.000000002 8 5.999999995
7.000000001 8 4.999999989
7.000000001 8 3.999999985
7.000000001 8 2.999999988
7 8 1.999999992
7 8 0.9999999961
0.9999999951 7 0
1.99999999 7 0
2.999999985 7.000000001 0
3.999999981 7.000000001 0
4.999999987 7.000000001 0
5.999999993 7.000000002 0
6.999999999 7.000000002 0
0.9999999951 5.999999995 0
1.99999999 5.999999996 0
2.999999985 5.999999998 0
3.999999981 5.999999999 0
4.999999987 6.000000001 0
5.999999993 6.000000002 0
6.999999999 6.000000004 0
0.9999999951 4.999999989 0
1.99999999 4.999999992 0
2.999999985 4.999999995 0
3.999999981 4.999999998 0
4.999999987 5 0
5.999999993 5.000000003 0
6.999999999 5.000000006 0
0.9999999951 3.999999985 0
1.99999999 3.999999988 0
2.999999985 3.999999992 0
3.999999981 3.999999996 0
4.999999987 4 0
5.999999993 4.000000003 0
6.999999999 4.000000007 0
0.9999999951 2.999999988 0
1.99999999 2.999999991 0
2.999999985 2.999999994 0
3.999999981 2.999999997 0
4.999999987 3 0
5.999999993 3.000000002 0
6.999999999 3.000000005 0
0.9999999951 1.999999992 0
1.99999999 1.999999994 0
2.999999985 1.999999996 0
3.999999981 1.999999998 0
4.999999987 2 0
5.999999993 2.000000002 0
6.999999999 2.000000003 0
0.9999999951 0.9999999961 0
1.99999999 0.999999997 0
2.999999985 0.9999999979 0
3.999999981 0.9999999988 0
4.999999987 0.9999999997 0
5.999999993 1.000000001 0
6.999999999 1.000000002 0
7 0 0.9999999961
7 0 1.999999992
7.000000001 0 2.999999988
7.000000001 0 3.999999985
7.000000001 0 4.999999989
7.000000002 0 5.999999995
7.000000002 0 7
5.999999995 0 0.999999997
5.999999996 0 1.999999994
5.999999998 0 2.999999991
5.999999999 0 3.999999988
6.000000001 0 4.999999992
6.000000002 0 5.999999996
6.000000004 0 7
4.999999989 0 0.9999999979
4.999999992 0 1.999999996
4.999999995 0 2.999999994
4.999999998 0 3.999999992
5 0 4.999999995
5.000000003 0 5.999999998
5.000000006 0 7.000000001
3.999999985 0 0.9999999988
3.999999988 0 1.999999998
3.999999992 0 2.999999997
3.999999996 0 3.999999996
4 0 4.999999998
4.000000003 0 5.999999999
4.000000007 0 7.000000001
2.999999988 0 0.9999999997
2.999999991 0 2
2.999999994 0 3
2.999999997 0 4
3 0 5
3.000000002 0 6.000000001
3.000000005 0 7.000000001
1.999999992 0 1.000000001
1.999999994 0 2.000000002
1.999999996 0 3.000000002
1.999999998 0 4.000000003
2 0 5.000000003
2.000000002 0 6.000000002
2.000000003 0 7.000000002
0.9999999961 0 1.000000002
0.999999997 0 2.000000003
0.9999999979 0 3.000000005
0.9999999988 0 4.000000007
0.9999999997 0 5.000000006
1.000000001 0 6.000000004
1.000000002 0 7.000000002
8 1.000000002 6.999999999
8 2.000000005 6.999999999
8 3.000000008 6.999999999
8 4.000000011 6.999999999
8 5.000000008 6.999999999
8 6.000000005 6.999999999
8 7.000000003 6.999999999
8 1.000000002 5.999999993
8 2.000000005 5.999999993
8 3.000000008 5.999999993
8 4.000000011 5.999999993
8 5.000000008 5.999999993
8 6.000000005 5.999999993
8 7.000000003 5.999999993
8 1.000000002 4.999999987
8 2.000000005 4.999999987
8 3.000000008 4.999999987
8 4.000000011 4.999999987
8 5.000000008 4.999999987
8 6.000000005 4.999999987
8 7.000000003 4.999999987
8 1.000000002 3.999999981
8 2.000000005 3.999999981
8 3.000000008 3.999999981
8 4.000000011 3.999999981
8 5.000000008 3.999999981
8 6.000000005 3.999999981
8 7.000000003 3.999999981
8 1.000000002 2.999999985
8 2.000000005 2.999999985
8 3.000000008 2.999999985
8 4.000000011 2.999999985
8 5.000000008 2.999999985
8 6.000000005 2.999999985
8 7.000000003 2.999999985
8 1.000000002 1.99999999
8 2.000000005 1.99999999
8 3.000000008 1.99999999
8 4.000000011 1.99999999
8 5.000000008 1.99999999
8 6.000000005 1.99999999
8 7.000000003 1.99999999
8 1.000000002 0.9999999951
8 2.000000005 0.9999999951
8 3.000000008 0.9999999951
8 4.000000011 0.9999999951
8 5.000000008 0.9999999951
8 6.000000005 0.9999999951
8 7.000000003 0.9999999951
1.000000002 1.000000002 7.000000002
1.000000001 1.000000001 6.000000004
0.9999999997 1 5.000000006
0.9999999988 0.9999999993 4.000000007
0.9999999979 0.9999999985 3.000000005
0.999999997 0.9999999977 2.000000003
0.9999999961 0.9999999969 1.000000002
1.000000002 2.000000004 7.000000002
1.000000001 2.000000002 6.000000004
0.9999999997 2 5.000000006
0.9999999988 1.999999999 4.000000007
0.9999999979 1.999999997 3.000000005
0.999999997 1.999999995 2.000000003
0.9999999961 1.999999994 1.000000002
1.000000002 3.000000006 7.000000002
1.000000001 3.000000003 6.000000004
0.9999999997 3.000000001 5.000000006
0.9999999988 2.999999998 4.000000007
0.9999999979 2.999999996 3.000000005
0.999999997 2.999999993 2.000000003
0.9999999961 2.999999991 1.000000002
1.000000002 4.000000008 7.000000002
1.000000001 4.000000004 6.000000004
0.9999999997 4.000000001 5.000000006
0.9999999988 3.999999998 4.000000007
0.9999999979 3.999999994 3.000000005
0.999999997 3.999999991 2.000000003
0.9999999961 3.999999988 1.000000002
1.000000002 5.000000006 7.000000002
1.000000001 5.000000004 6.000000004
0.9999999997 5.000000001 5.000000006
0.9999999988 4.999999999 4.000000007
0.9999999979 4.999999997 3.000000005
0.999999997 4.999999994 2.000000003
0.9999999961 4.999999992 1.000000002
1.000000002 6.000000004 7.000000002
1.000000001 6.000000003 6.000000004
0.9999999997 6.000000001 5.000000006
0.9999999988 6 4.000000007
0.9999999979 5.999999999 3.000000005
0.999999997 5.999999997 2.000000003
0.9999999961 5.999999996 1.000000002
1.000000002 7.000000002 7.000000002
1.000000001 7.000000002 6.000000004
0.9999999997 7.000000002 5.000000006
0.9999999988 7.000000001 4.000000007
0.9999999979 7.000000001 3.000000005
0.999999997 7 2.000000003
0.9999999961 7 1.000000002
2.000000003 1.000000002 7.000000002
2.000000002 1.000000001 6.000000002
2 1 5.000000003
1.999999998 0.9999999997 4.000000003
1.999999996 0.999999999 3.000000002
1.999999994 0.9999999984 2.000000002
1.999999992 0.9999999977 1.000000001
2.000000003 2.000000004 7.000000002
2.000000002 2.000000002 6.000000002
2 2.000000001 5.000000003
1.999999998 2 4.000000003
1.999999996 1.999999998 3.000000002
1.999999994 1.999999997 2.000000002
1.999999992 1.999999995 1.000000001
2.000000003 3.000000006 7.000000002
2.000000002 3.000000004 6.000000002
2 3.000000002 5.000000003
1.999999998 3 4.000000003
1.999999996 2.999999997 3.000000002
1.999999994 2.999999995 2.000000002
1.999999992 2.999999993 1.000000001
2.000000003 4.000000008 7.000000002
2.000000002 4.000000005 6.000000002
2 4.000000002 5.000000003
1.999999998 4 4.000000003
1.999999996 3.999999997 3.000000002
1.999999994 3.999999994 2.000000002
1.999999992 3.999999991 1.000000001
2.000000003 5.000000006 7.000000002
2.000000002 5.000000004 6.000000002
2 5.000000002 5.000000003
1.999999998 5 4.000000003
1.999999996 4.999999998 3.000000002
1.999999994 4.999999996 2.000000002
1.999999992 4.999999994 1.000000001
2.000000003 6.000000004 7.000000002
2.000000002 6.000000003 6.000000002
2 6.000000002 5.000000003
1.999999998 6.000000001 4.000000003
1.999999996 6 3.000000002
1.999999994 5.999999998 2.000000002
1.999999992 5.999999997 1.000000001
2.000000003 7.000000002 7.000000002
2.000000002 7.000000002 6.000000002
2 7.000000002 5.000000003
1.999999998 7.000000001 4.000000003
1.999999996 7.000000001 3.000000002
1.999999994 7.000000001 2.000000002
1.999999992 7 1.000000001
3.000000005 1.000000002 7.000000001
3.000000002 1.000000001 6.000000001
3 1.000000001 5
2.999999997 1 4
2.999999994 0.9999999996 3
2.999999991 0.999999999 2
2.999999988 0.9999999985 0.9999999997
3.000000005 2.000000004 7.000000001
3.000000002 2.000000003 6.000000001
3 2.000000002 5
2.999999997 2.000000001 4
2.999999994 1.999999999 3
2.999999991 1.999999998 2
2.999999988 1.999999997 0.9999999997
3.000000005 3.000000006 7.000000001
3.000000002 3.000000005 6.000000001
3 3.000000003 5
2.999999997 3.000000001 4
2.999999994 2.999999999 3
2.999999991 2.999999997 2
2.999999988 2.999999996 0.9999999997
3.000000005 4.000000009 7.000000001
3.000000002 4.000000006 6.000000001
3 4.000000004 5
2.999999997 4.000000001 4
2.999999994 3.999999999 3
2.999999991 3.999999997 2
2.999999988 3.999999994 0.9999999997
3.000000005 5.000000007 7.000000001
3.000000002 5.000000005 6.000000001
3 5.000000003 5
2.999999997 5.000000002 4
2.999999994 5 3
2.999999991 4.999999998 2
2.999999988 4.999999997 0.9999999997
3.000000005 6.000000005 7.000000001
3.000000002 6.000000004 6.000000001
3 6.000000003 5
2.999999997 6.000000002 4
2.999999994 6.000000001 3
2.999999991 6 2
2.999999988 5.999999999 0.9999999997
3.000000005 7.000000002 7.000000001
3.000000002 7.000000002 6.000000001
3 7.000000002 5
2.999999997 7.000000002 4
2.999999994 7.000000001 3
2.999999991 7.000000001 2
2.999999988 7.000000001 0.9999999997
4.000000007 1.000000002 7.000000001
4.000000003 1.000000002 5.999999999
4 1.000000001 4.999999998
3.999999996 1.000000001 3.999999996
3.999999992 1 2.999999997
3.999999988 0.9999999997 1.999999998
3.999999985 0.9999999993 0.9999999988
4.000000007 2.000000004 7.000000001
4.000000003 2.000000003 5.999999999
4 2.000000002 4.999999998
3.999999996 2.000000002 3.999999996
3.999999992 2.000000001 2.999999997
3.999999988 2 1.999999998
3.999999985 1.999999999 0.9999999988
4.000000007 3.000000007 7.000000001
4.000000003 3.000000005 5.999999999
4 3.000000004 4.999999998
3.999999996 3.000000002 3.999999996
3.999999992 3.000000001 2.999999997
3.999999988 3 1.999999998
3.999999985 2.999999998 0.9999999988
4.000000007 4.000000009 7.000000001
4.000000003 4.000000007 5.999999999
4 4.000000005 4.999999998
3.999999996 4.000000003 3.999999996
3.999999992 4.000000001 2.999999997
3.999999988 4 1.999999998
3.999999985 3.999999998 0.9999999988
4.000000007 5.000000007 7.000000001
4.000000003 5.000000006 5.999999999
4 5.000000004 4.999999998
3.999999996 5.000000003 3.999999996
3.999999992 5.000000002 2.999999997
3.999999988 5 1.999999998
3.999999985 4.999999999 0.9999999988
4.000000007 6.000000005 7.000000001
4.000000003 6.000000004 5.999999999
4 6.000000003 4.999999998
3.999999996 6.000000002 3.999999996
3.999999992 6.000000002 2.999999997
3.999999988 6.000000001 1.999999998
3.999999985 6 0.9999999988
4.000000007 7.000000003 7.000000001
4.000000003 7.000000002 5.999999999
4 7.000000002 4.999999998
3.999999996 7.000000002 3.999999996
3.999999992 7.000000002 2.999999997
3.999999988 7.000000001 1.999999998
3.999999985 7.000000001 0.9999999988
5.000000006 1.000000002 7.000000001
5.000000003 1.000000002 5.999999998
5 1.000000001 4.999999995
4.999999998 1.000000001 3.999999992
4.999999995 1.000000001 2.999999994
4.999999992 1 1.999999996
4.999999989 1 0.9999999979
5.000000006 2.000000005 7.000000001
5.000000003 2.000000004 5.999999998
5 2.000000003 4.999999995
4.999999998 2.000000002 3.999999992
4.999999995 2.000000002 2.999999994
4.999999992 2.000000001 1.999999996
4.999999989 2 0.9999999979
5.000000006 3.000000007 7.000000001
5.000000003 3.000000006 5.999999998
5 3.000000005 4.999999995
4.999999998 3.000000004 3.999999992
4.999999995 3.000000003 2.999999994
4.999999992 3.000000002 1.999999996
4.999999989 3.000000001 0.9999999979
5.000000006 4.000000009 7.000000001
5.000000003 4.000000008 5.999999998
5 4.000000007 4.999999995
4.999999998 4.000000005 3.999999992
4.999999995 4.000000004 2.999999994
4.999999992 4.000000002 1.999999996
4.999999989 4.000000001 0.9999999979
5.000000006 5.000000007 7.000000001
5.000000003 5.000000006 5.999999998
5 5.000000005 4.999999995
4.999999998 5.000000004 3.999999992
4.999999995 5.000000003 2.999999994
4.999999992 5.000000002 1.999999996
4.999999989 5.000000001 0.9999999979
5.000000006 6.000000005 7.000000001
5.000000003 6.000000004 5.999999998
5 6.000000004 4.999999995
4.999999998 6.000000003 3.999999992
4.999999995 6.000000003 2.999999994
4.999999992 6.000000002 1.999999996
4.999999989 6.000000001 0.9999999979
5.000000006 7.000000003 7.000000001
5.000000003 7.000000002 5.999999998
5 7.000000002 4.999999995
4.999999998 7.000000002 3.999999992
4.999999995 7.000000002 2.999999994
4.999999992 7.000000002 1.999999996
4.999999989 7.000000002 0.9999999979
6.000000004 1.000000002 7
6.000000002 1.000000002 5.999999996
6.000000001 1.000000002 4.999999992
5.999999999 1.000000002 3.999999988
5.999999998 1.000000001 2.999999991
5.999999996 1.000000001 1.999999994
5.999999995 1.000000001 0.999999997
6.000000004 2.000000005 7
6.000000002 2.000000004 5.999999996
6.000000001 2.000000004 4.999999992
5.999999999 2.000000003 3.999999988
5.999999998 2.000000003 2.999999991
5.999999996 2.000000002 1.999999994
5.999999995 2.000000002 0.999999997
6.000000004 3.000000007 7
6.000000002 3.000000007 5.999999996
6.000000001 3.000000006 4.999999992
5.999999999 3.000000005 3.999999988
5.999999998 3.000000005 2.999999991
5.999999996 3.000000004 1.999999994
5.999999995 3.000000003 0.999999997
6.000000004 4.00000001 7
6.000000002 4.000000009 5.999999996
6.000000001 4.000000008 4.999999992
5.999999999 4.000000007 3.999999988
5.999999998 4.000000006 2.999999991
5.999999996 4.000000005 1.999999994
5.999999995 4.000000004 0.999999997
6.000000004 5.000000008 7
6.000000002 5.000000007 5.999999996
6.000000001 5.000000006 4.999999992
5.999999999 5.000000006 3.999999988
5.999999998 5.000000005 2.999999991
5.999999996 5.000000004 1.999999994
5.999999995 5.000000004 0.999999997
6.000000004 6.000000005 7
6.000000002 6.000000005 5.999999996
6.000000001 6.000000004 4.999999992
5.999999999 6.000000004 3.999999988
5.999999998 6.000000004 2.999999991
5.999999996 6.000000003 1.999999994
5.999999995 6.000000003 0.999999997
6.000000004 7.000000003 7
6.000000002 7.000000003 5.999999996
6.000000001 7.000000002 4.999999992
5.999999999 7.000000002 3.999999988
5.999999998 7.000000002 2.999999991
5.999999996 7.000000002 1.999999994
5.999999995 7.000000002 0.999999997
7.000000002 1.000000002 7
7.000000002 1.000000002 5.999999995
7.000000001 1.000000002 4.999999989
7.000000001 1.000000002 3.999999985
7.000000001 1.000000002 2.999999988
7 1.000000002 1.999999992
7 1.000000002 0.9999999961
7.000000002 2.000000005 7
7.000000002 2.000000005 5.999999995
7.000000001 2.000000005 4.999999989
7.000000001 2.000000004 3.999999985
7.000000001 2.000000004 2.999999988
7 2.000000004 1.999999992
7 2.000000004 0.9999999961
7.000000002 3.000000008 7
7.000000002 3.000000007 5.999999995
7.000000001 3.000000007 4.999999989
7.000000001 3.000000007 3.999999985
7.000000001 3.000000006 2.999999988
7 3.000000006 1.999999992
7 3.000000006 0.9999999961
7.000000002 4.00000001 7
7.000000002 4.00000001 5.999999995
7.000000001 4.000000009 4.999999989
7.000000001 4.000000009 3.999999985
7.000000001 4.000000009 2.999999988
7 4.000000008 1.999999992
7 4.000000008 0.9999999961
7.000000002 5.000000008 7
7.000000002 5.000000008 5.999999995
7.000000001 5.000000007 4.999999989
7.000000001 5.000000007 3.999999985
7.000000001 5.000000007 2.999999988
7 5.000000006 1.999999992
7 5.000000006 0.9999999961
7.000000002 6.000000005 7
7.000000002 6.000000005 5.999999995
7.000000001 6.000000005 4.999999989
7.000000001 6.000000005 3.999999985
7.000000001 6.000000005 2.999999988
7 6.000000004 1.999999992
7 6.000000004 0.9999999961
7.000000002 7.000000003 7
7.000000002 7.000000003 5.999999995
7.000000001 7.000000003 4.999999989
7.000000001 7.000000003 3.999999985
7.000000001 7.000000002 2.999999988
7 7.000000002 1.999999992
7 7.000000002 0.9999999961
CELLS 0 0
CELL_TYPES 0
POINT_DATA 729
SCALARS GLOBAL_ID int 1
LOOKUP_TABLE default
