# vtk DataFile Version 3.0
MOAB 5.0.1
ASCII
DATASET UNSTRUCTURED_GRID
POINTS 66 double
0 0 0
2 0 0
0 2 0
2 2 0
0 0 2
2 0 2
0 2 2
2 2 2
1 0 2
2 0 1
1 0 0
0 0 1
0 1 2
1 2 2
2 2 1
1 2 0
0 2 1
0 1 0
2 1 2
2 1 0
1.106535197 0.8705271383 2
0.8398695236 1.529021479 2
1.21325295 1.425498595 2
0 1.106531514 0.8705250178
0 0.8398666015 1.529019797
0 1.213250068 1.425496936
0.8934648034 2 1.129472862
1.160130476 2 0.4709785211
0.7867470499 2 0.5745014052
0.998046875 0.998046875 0
0.8934648034 0 1.129472862
1.160130476 0 0.4709785211
0.7867470499 0 0.5745014052
2 0.9999989772 0.9999989772
0.4192891338 0.4664515431 1.674999607
1.592928759 0.4658445202 1.851884123
0.2984797803 1.6011926 1.761875931
1.226670968 1.783977556 1.81044354
1.655190994 1.286492442 1.70393611
0.4568353853 1.241654433 1.576009109
0.3239290252 0.4874986886 0.4480291626
0.2408083189 1.641329841 0.4851593115
0.1326108637 0.4306605709 1.635076638
0.2055150218 1.314797669 1.766333409
0.269835956 1.692212008 1.305071103
0.3205107707 0.6148320977 1.267185
0.8459701283 1.768600424 0.2138544746
0.3702189492 1.886775229 0.6852190906
1.586193465 1.844122387 0.3303626944
0.442579119 1.691139545 1.571049405
1.478040815 1.762949548 1.686402452
1.424651371 1.620064642 0.7115869802
0.5258639801 0.4393286823 0.1869405518
1.508711499 0.4004314737 0.3374575851
0.5072477554 1.602862071 0.2159270437
1.449113597 1.587554459 0.3319831751
0.7580362527 0.2412188015 0.2139586201
0.3453497158 0.2844509104 0.6763693461
1.592093503 0.1552434534 0.3386590086
0.2965043024 0.317982138 1.537292201
1.522833653 0.4035404353 1.600529606
1.397132618 0.3794583966 0.6125903594
1.68109506 0.3178669457 0.4748915786
1.679580007 1.676221159 0.4681541745
1.719379554 0.6507139462 1.658692434
1.617649428 1.589357797 1.473782644
CELLS 200 1032
4 62 61 33 53
4 55 63 51 33
4 26 29 51 33
4 29 30 61 33
4 23 29 26 33
4 65 26 22 50
4 23 39 25 45
4 20 64 60 33
4 29 55 51 33
4 61 29 33 53
4 29 28 26 51
4 30 32 29 61
4 64 20 60 35
4 26 39 20 22
4 26 65 14 50
4 30 59 34 45
4 29 28 23 26
4 53 19 33 62
4 63 55 19 33
4 27 29 55 51
4 30 20 60 33
4 60 9 33 64
4 34 30 45 20
4 54 29 28 23
4 34 45 24 20
4 41 54 28 23
4 9 30 33 61
4 45 39 24 20
4 39 25 45 24
4 29 27 28 51
4 31 62 58 53
4 47 41 28 23
4 63 27 48 55
4 29 19 33 53
4 19 29 33 55
4 30 9 33 60
4 31 62 53 61
4 63 27 55 51
4 64 20 38 33
4 39 26 49 21
4 62 31 58 9
4 27 63 48 14
4 28 47 23 26
4 33 14 63 51
4 61 9 62 33
4 39 26 21 22
4 23 11 40 57
4 28 2 46 54
4 7 22 37 50
4 17 29 54 23
4 47 44 23 26
4 20 18 35 64
4 18 33 38 65
4 18 33 64 38
4 17 54 41 23
4 23 11 57 45
4 25 6 43 36
4 59 30 34 8
4 20 8 60 35
4 20 18 64 38
4 46 29 54 15
4 56 52 29 10
4 12 20 24 39
4 30 11 59 45
4 52 56 0 10
4 46 54 2 15
4 12 20 34 24
4 13 7 37 50
4 30 34 8 20
4 8 30 20 60
4 30 11 45 57
4 22 26 37 50
4 21 12 43 39
4 36 6 43 12
4 21 12 36 43
4 49 36 13 6
4 10 53 58 1
4 3 55 48 15
4 31 62 61 9
4 63 27 51 14
4 39 43 25 24
4 17 54 2 41
4 64 5 18 35
4 19 62 53 1
4 55 3 63 19
4 16 23 41 47
4 26 16 44 49
4 8 5 60 35
4 4 59 34 8
4 40 52 0 17
4 26 21 22 37
4 4 12 34 42
4 38 18 65 7
4 2 41 47 16
4 16 44 49 6
4 40 52 57 0
4 5 64 9 60
4 7 65 50 14
4 62 9 58 1
4 14 3 63 48
4 59 11 4 42
4 26 13 37 50
4 16 23 47 44
4 26 16 47 44
4 11 40 57 0
4 5 64 60 35
4 43 39 12 24
4 26 13 21 37
4 49 26 13 21
4 53 62 58 1
4 3 55 63 48
4 59 4 34 42
4 53 31 10 58
4 55 27 48 15
4 34 12 24 42
4 36 49 13 21
4 26 33 14 65
4 26 14 33 51
4 65 26 20 22
4 20 26 65 33
4 20 38 65 22
4 65 38 20 33
4 28 41 2 54
4 28 2 41 47
4 44 49 39 26
4 39 49 44 25
4 39 23 44 26
4 44 23 39 25
4 22 65 7 38
4 7 65 22 50
4 11 42 45 24
4 11 45 42 59
4 34 45 42 24
4 34 42 45 59
4 40 17 29 52
4 29 17 40 23
4 40 29 57 52
4 57 29 40 23
4 25 49 6 36
4 25 6 49 44
4 43 39 36 21
4 43 36 39 25
4 49 36 39 21
4 49 39 36 25
4 28 46 29 54
4 28 29 46 27
4 29 27 15 46
4 29 15 27 55
4 45 39 26 23
4 45 26 39 20
4 33 45 26 23
4 33 26 45 20
4 30 33 45 20
4 29 30 57 32
4 33 45 29 30
4 33 29 45 23
4 57 29 45 30
4 57 45 29 23
4 56 29 57 32
4 57 29 56 52
4 57 0 56 32
4 56 0 57 52
4 56 53 10 29
4 10 53 56 31
4 32 61 53 29
4 53 61 32 31
4 56 32 53 29
4 53 32 56 31
5 8 4 12 20 34
5 20 18 5 8 35
5 13 21 12 6 36
5 7 22 21 13 37
5 20 22 7 18 38
5 12 21 22 20 39
5 23 11 0 17 40
5 23 17 2 16 41
5 12 4 11 24 42
5 6 12 24 25 43
5 23 16 6 25 44
5 11 23 25 24 45
5 2 15 27 28 46
5 2 28 26 16 47
5 15 3 14 27 48
5 6 16 26 13 49
5 13 26 14 7 50
5 14 26 28 27 51
5 0 10 29 17 52
5 19 29 10 1 53
5 17 29 15 2 54
5 15 29 19 3 55
5 31 10 0 32 56
5 30 32 0 11 57
5 9 1 10 31 58
5 30 11 4 8 59
5 9 30 8 5 60
5 32 30 9 31 61
5 1 9 33 19 62
5 33 14 3 19 63
5 5 18 33 9 64
5 14 33 18 7 65
CELL_TYPES 200
10
10
10
10
10
10
10
10
10
10
10
10
10
10
10
10
10
10
10
10
10
10
10
10
10
10
10
10
10
10
10
10
10
10
10
10
10
10
10
10
10
10
10
10
10
10
10
10
10
10
10
10
10
10
10
10
10
10
10
10
10
10
10
10
10
10
10
10
10
10
10
10
10
10
10
10
10
10
10
10
10
10
10
10
10
10
10
10
10
10
10
10
10
10
10
10
10
10
10
10
10
10
10
10
10
10
10
10
10
10
10
10
10
10
10
10
10
10
10
10
10
10
10
10
10
10
10
10
10
10
10
10
10
10
10
10
10
10
10
10
10
10
10
10
10
10
10
10
10
10
10
10
10
10
10
10
10
10
10
10
10
10
10
10
10
10
10
10
14
14
14
14
14
14
14
14
14
14
14
14
14
14
14
14
14
14
14
14
14
14
14
14
14
14
14
14
14
14
14
14
POINT_DATA 66
SCALARS GLOBAL_ID int 1
LOOKUP_TABLE default
0 
1 
2 
3 
4 
5 
6 
7 
8 
9 
10 
11 
12 
13 
14 
15 
16 
17 
18 
19 
20 
21 
22 
23 
24 
25 
26 
27 
28 
29 
30 
31 
32 
33 
34 
35 
36 
37 
38 
39 
40 
41 
42 
43 
44 
45 
46 
47 
48 
49 
50 
51 
52 
53 
54 
55 
56 
57 
58 
59 
60 
61 
62 
63 
64 
65 
SCALARS ID-NODES int 1
LOOKUP_TABLE default
0 
1 
2 
3 
4 
5 
6 
7 
8 
9 
10 
11 
12 
13 
14 
15 
16 
17 
18 
19 
20 
21 
22 
23 
24 
25 
26 
27 
28 
29 
30 
31 
32 
33 
34 
35 
36 
37 
38 
39 
40 
41 
42 
43 
44 
45 
46 
47 
48 
49 
50 
51 
52 
53 
54 
55 
56 
57 
58 
59 
60 
61 
62 
63 
64 
65 
SCALARS FLAGS int 1
LOOKUP_TABLE default
101 
101 
101 
101 
202 
202 
202 
202 
0 
0 
0 
0 
0 
0 
0 
0 
0 
0 
0 
0 
0 
0 
0 
0 
0 
0 
0 
0 
0 
0 
0 
0 
0 
0 
0 
0 
0 
0 
0 
0 
0 
0 
0 
0 
0 
0 
0 
0 
0 
0 
0 
0 
0 
0 
0 
0 
0 
0 
0 
0 
0 
0 
0 
0 
0 
0 
SCALARS BUNDA int 1
LOOKUP_TABLE default
0 
1 
2 
3 
4 
5 
6 
7 
8 
9 
10 
11 
12 
13 
14 
15 
16 
17 
18 
19 
20 
21 
22 
23 
24 
25 
26 
27 
28 
29 
30 
31 
32 
33 
0 
0 
0 
0 
0 
0 
0 
0 
0 
0 
0 
0 
0 
0 
0 
0 
0 
0 
0 
0 
0 
0 
0 
0 
0 
0 
0 
0 
0 
0 
0 
0 
CELL_DATA 200
SCALARS GLOBAL_ID int 1
LOOKUP_TABLE default
0 
1 
2 
3 
4 
5 
6 
7 
8 
9 
10 
11 
12 
13 
14 
15 
16 
17 
18 
19 
20 
21 
22 
23 
24 
25 
26 
27 
28 
29 
30 
31 
32 
33 
34 
35 
36 
37 
38 
39 
40 
41 
42 
43 
44 
45 
46 
47 
48 
49 
50 
51 
52 
53 
54 
55 
56 
57 
58 
59 
60 
61 
62 
63 
64 
65 
66 
67 
68 
69 
70 
71 
72 
73 
74 
75 
76 
77 
78 
79 
80 
81 
82 
83 
84 
85 
86 
87 
88 
89 
90 
91 
92 
93 
94 
95 
96 
97 
98 
99 
100 
101 
102 
103 
104 
105 
106 
107 
108 
109 
110 
111 
112 
113 
114 
115 
116 
117 
118 
119 
120 
121 
122 
123 
124 
125 
126 
127 
128 
129 
130 
131 
132 
133 
134 
135 
136 
137 
138 
139 
140 
141 
142 
143 
144 
145 
146 
147 
148 
149 
150 
151 
152 
153 
154 
155 
156 
157 
158 
159 
160 
161 
162 
163 
164 
165 
166 
167 
168 
169 
170 
171 
172 
173 
174 
175 
176 
177 
178 
179 
180 
181 
182 
183 
184 
185 
186 
187 
188 
189 
190 
191 
192 
193 
194 
195 
196 
197 
198 
199 
SCALARS ID-VOLUMES int 1
LOOKUP_TABLE default
0 
1 
2 
3 
4 
5 
6 
7 
8 
9 
10 
11 
12 
13 
14 
15 
16 
17 
18 
19 
20 
21 
22 
23 
24 
25 
26 
27 
28 
29 
30 
31 
32 
33 
34 
35 
36 
37 
38 
39 
40 
41 
42 
43 
44 
45 
46 
47 
48 
49 
50 
51 
52 
53 
54 
55 
56 
57 
58 
59 
60 
61 
62 
63 
64 
65 
66 
67 
68 
69 
70 
71 
72 
73 
74 
75 
76 
77 
78 
79 
80 
81 
82 
83 
84 
85 
86 
87 
88 
89 
90 
91 
92 
93 
94 
95 
96 
97 
98 
99 
100 
101 
102 
103 
104 
105 
106 
107 
108 
109 
110 
111 
112 
113 
114 
115 
116 
117 
118 
119 
120 
121 
122 
123 
124 
125 
126 
127 
128 
129 
130 
131 
132 
133 
134 
135 
136 
137 
138 
139 
140 
141 
142 
143 
144 
145 
146 
147 
148 
149 
150 
151 
152 
153 
154 
155 
156 
157 
158 
159 
160 
161 
162 
163 
164 
165 
166 
167 
168 
169 
170 
171 
172 
173 
174 
175 
176 
177 
178 
179 
180 
181 
182 
183 
184 
185 
186 
187 
188 
189 
190 
191 
192 
193 
194 
195 
196 
197 
198 
199 
SCALARS MATERIAL int 1
LOOKUP_TABLE default
1 
1 
1 
1 
1 
1 
1 
1 
1 
1 
1 
1 
1 
1 
1 
1 
1 
1 
1 
1 
1 
1 
1 
1 
1 
1 
1 
1 
1 
1 
1 
1 
1 
1 
1 
1 
1 
1 
1 
1 
1 
1 
1 
1 
1 
1 
1 
1 
1 
1 
1 
1 
1 
1 
1 
1 
1 
1 
1 
1 
1 
1 
1 
1 
1 
1 
1 
1 
1 
1 
1 
1 
1 
1 
1 
1 
1 
1 
1 
1 
1 
1 
1 
1 
1 
1 
1 
1 
1 
1 
1 
1 
1 
1 
1 
1 
1 
1 
1 
1 
1 
1 
1 
1 
1 
1 
1 
1 
1 
1 
1 
1 
1 
1 
1 
1 
1 
1 
1 
1 
1 
1 
1 
1 
1 
1 
1 
1 
1 
1 
1 
1 
1 
1 
1 
1 
1 
1 
1 
1 
1 
1 
1 
1 
1 
1 
1 
1 
1 
1 
1 
1 
1 
1 
1 
1 
1 
1 
1 
1 
1 
1 
1 
1 
1 
1 
1 
1 
1 
1 
1 
1 
1 
1 
1 
1 
1 
1 
1 
1 
1 
1 
1 
1 
1 
1 
1 
1 
1 
1 
1 
1 
1 
1 
1 
1 
1 
1 
1 
1 
SCALARS PARALLEL int 1
LOOKUP_TABLE default
1 
1 
1 
1 
1 
0 
0 
0 
1 
1 
1 
1 
0 
0 
0 
0 
1 
1 
1 
1 
0 
0 
0 
1 
0 
1 
1 
0 
0 
1 
1 
1 
1 
1 
1 
0 
1 
1 
0 
0 
1 
1 
1 
1 
1 
0 
1 
1 
0 
1 
0 
0 
0 
0 
1 
1 
0 
0 
0 
0 
1 
1 
0 
0 
1 
1 
0 
0 
0 
0 
1 
0 
0 
0 
0 
0 
1 
1 
1 
1 
0 
1 
0 
1 
1 
1 
0 
0 
0 
1 
0 
0 
0 
1 
0 
1 
0 
0 
1 
1 
0 
0 
0 
0 
1 
0 
0 
0 
0 
1 
1 
0 
1 
1 
0 
0 
0 
1 
0 
0 
0 
0 
1 
1 
0 
0 
0 
0 
0 
0 
0 
0 
0 
0 
1 
1 
1 
1 
0 
0 
0 
0 
0 
0 
1 
1 
1 
1 
0 
0 
1 
0 
0 
1 
1 
1 
1 
1 
1 
1 
1 
1 
1 
1 
1 
1 
1 
1 
0 
0 
0 
0 
0 
0 
1 
1 
0 
0 
0 
0 
1 
1 
1 
0 
0 
1 
1 
1 
1 
1 
1 
1 
1 
0 
0 
1 
1 
1 
0 
0 
VECTORS CENTER double
1.646734794 0.5244389483 0.6062346251 
1.638336244 1.470959809 0.6279308268 
1.329040762 1.404527624 0.7102647048 
1.322161074 0.5943760622 0.6855155496 
0.9728779196 1.276144341 0.7499992142 
1.300601999 1.694451485 1.57241449 
0.194336539 1.044067028 1.284804016 
1.587187101 0.7311951243 1.564805254 
1.467952961 1.301416238 0.5108922831 
1.475972748 0.6944839306 0.4875117304 
1.025727525 1.654527879 0.6038903118 
1.018847837 0.3443763179 0.5791411566 
1.485419291 0.59765651 1.777776541 
0.9175220838 1.384420041 1.676370493 
1.497288761 1.838076836 1.32241449 
0.4824422526 0.3498164447 1.402237418 
0.6695646821 1.526144597 0.6436248212 
1.79745164 0.6795743492 0.4530870352 
1.782173401 1.315943649 0.4500340817 
1.25798558 1.551416494 0.3786371691 
1.380708413 0.5685166377 1.432500361 
1.810553302 0.5135633397 1.314805254 
0.6849499761 0.4879526948 1.517914367 
0.5730104201 1.426860115 0.4152383667 
0.4615837753 0.6979193451 1.617801101 
0.383700781 1.587680856 0.5365281946 
1.572649355 0.3448643435 0.9355155496 
0.4709703381 0.8917200676 1.593053477 
0.194336539 0.9774008001 1.44942771 
1.092393943 1.654527879 0.4392667266 
1.485507635 0.2183854682 0.4054966733 
0.3494435795 1.658659146 0.6538512063 
1.468754386 1.776974501 0.4003696413 
1.626689594 0.8496193315 0.3343641406 
1.611790118 1.146400078 0.3329955381 
1.604074614 0.3508848531 1.182500361 
1.436767414 0.274439204 0.4739795111 
1.428368863 1.720960065 0.4956757127 
1.620276436 0.951933126 1.59065688 
0.6581872078 1.615453864 1.569132844 
1.60832976 0.1182775998 0.5711322771 
1.606475987 1.880085887 0.5673738475 
0.5126077006 1.748326686 0.8149295938 
1.776057844 1.574071195 0.794935033 
1.76955692 0.4243310799 0.7718702288 
0.8508556656 1.549043627 1.676370493 
0.1673196852 0.4696202782 0.7487308816 
0.5349912334 1.842865624 0.2510707309 
1.479491183 1.743106425 1.874211498 
0.3763236576 1.176860115 0.2716130154 
0.3833799271 1.671379688 0.9975720184 
1.604710877 0.7467714012 1.877644139 
1.818210106 1.218962304 1.544429433 
1.843642637 0.9843013414 1.59065688 
0.1870140186 1.337680856 0.3929028433 
0.1664651216 0.5014536305 0.9535198411 
0.1259987005 1.532310084 1.738426569 
0.6523145599 0.1961084203 1.585441168 
1.305574402 0.4349780235 1.863103432 
1.620276436 0.9519333817 1.840657136 
0.8378161897 1.592377342 0.1074453796 
0.8204867769 0.4196485897 0.100224793 
0.3908426455 0.9880120432 1.776257227 
0.3776199691 0.2332035589 1.233487516 
0.5709750582 0.170136871 0.100224793 
0.5883044709 1.842865624 0.1074453796 
0.3814560826 0.7942113207 1.801004851 
1.426177946 1.886731776 1.874211498 
0.8548222835 0.3342446703 1.701118117 
1.130708413 0.3185168934 1.682500617 
0.3898313225 0.224820752 1.018256802 
1.202857384 1.743106425 1.656579714 
0.3755549827 1.271368395 1.83558563 
0.1259987005 1.478997567 1.882052335 
0.3359660814 1.361252937 1.882052335 
0.4352647248 1.823083036 1.833231334 
1.525201251 0.1389187318 0.1690291484 
1.508826766 1.857919212 0.1655864674 
1.559589539 0.1743313356 0.6396151148 
1.566090463 1.82407145 0.6626799189 
0.1655876018 1.152392193 1.574214813 
0.1870140186 1.561047978 0.1752715888 
1.828077078 0.5291396166 1.877644139 
1.79745164 0.4295746049 0.2030872909 
1.782173401 1.565943905 0.2000343374 
0.152756817 1.658659146 0.760225855 
0.4014699696 1.845837888 1.251398343 
1.528940603 0.2173462389 1.863103432 
0.4289483591 0.1961084203 1.803072952 
0.2124482513 0.4817068427 0.1587424286 
1.043314561 1.684624407 1.7349791 
0.1379749994 0.4742780285 1.827519061 
1.818210106 1.46896256 1.794429689 
0.152756817 1.882026267 0.5425946005 
0.1781037687 1.845837888 1.469030127 
0.2987856803 0.3028195703 0.3278347651 
1.810553302 0.2635635954 1.56480551 
1.773922561 1.838076836 1.540046274 
1.818297141 0.1182775998 0.4533876468 
1.816443368 1.880085887 0.4496292172 
0.1072787915 0.1871606772 1.54309221 
1.149544146 1.886731776 1.656579714 
0.1600137263 1.671379688 0.965203803 
0.3833799271 1.894746809 1.029940764 
0.1673196852 0.1929873998 0.5310996272 
1.708785492 0.3800247254 1.777776541 
0.1655876018 1.099079676 1.717840579 
0.9900013237 1.828249759 1.7349791 
0.7939783615 1.805040256 1.675130567 
1.695475016 0.2183854682 0.2877520431 
1.678721767 1.776974501 0.282625011 
0.212101075 0.303773563 1.711842112 
1.31523387 0.1389187318 0.2867737787 
1.298859385 1.857919212 0.2833310977 
0.1379749994 0.6842446789 1.70977401 
0.6452321057 1.705338406 1.833231334 
1.627778558 1.647339194 1.150813621 
1.579529044 1.655015905 0.9602647048 
1.207725594 1.471345883 1.650813877 
1.404412357 1.364970978 1.400813621 
1.398157142 1.292968993 1.794429689 
1.594843905 1.186594089 1.544429433 
0.383700781 1.811047978 0.3188969401 
0.3494435795 1.882026267 0.4362199518 
0.5156788159 1.656251497 1.39540062 
0.2923126151 1.459564014 1.469406638 
0.4050340362 1.510099489 1.220269523 
0.1816678353 1.313412006 1.294275542 
1.621523343 1.575337209 1.794429689 
1.577235798 1.694451485 1.790046274 
0.1132804086 0.4713398175 1.357820359 
0.1874064842 0.3408687017 1.35988846 
0.2181026921 0.5879527033 1.526570261 
0.2922287677 0.4574815874 1.528638362 
0.4619599701 0.7312185615 0.1587424286 
0.330493975 0.8980192693 0.3296385451 
0.548297399 0.5523312891 0.3278347651 
0.416831404 0.7191319969 0.4987308816 
0.1852647248 1.626395553 1.689605568 
0.1781037687 1.649150405 1.575404361 
0.4501749277 1.421666545 1.776054612 
0.2402075469 1.342723693 1.632428846 
0.509440952 1.515752014 1.727233611 
0.2994735711 1.436809162 1.583607845 
0.7845029521 1.592377342 0.2510707309 
0.9477236324 1.691661825 0.3148336002 
1.00103687 1.691661825 0.1712082489 
1.151822737 1.646400334 0.200740424 
0.4177027398 1.240754511 1.210797997 
0.694336539 1.181753417 1.493166743 
0.8034938935 1.180340647 1.066795464 
1.080127693 1.121339553 1.34916421 
1.080127693 0.6213395533 1.34916421 
0.755902111 0.3206244464 0.5950859033 
1.053005612 0.6532194875 0.8491642099 
0.8296394114 0.9298523659 0.7844272489 
0.6393430412 0.4743324708 0.7682568021 
0.4159768404 0.7509653492 0.7035198411 
0.7220449733 0.3809291467 0.3662073428 
0.6568242059 0.4907613173 0.2693171295 
0.4725332546 0.131417428 0.3662073428 
0.4073124871 0.2412495986 0.2693171295 
1.066198657 0.4099242876 0.1378540513 
1.106719557 0.1604125688 0.2555986816 
1.172659511 0.4444841863 0.3811373374 
1.213180411 0.1949724676 0.4988819677 
1.012885419 0.4099242876 0.2814794026 
1.05340632 0.1604125688 0.3992240329 
0.5051648661 0.4673957363 1.934999921 
1.539892791 0.4672743317 1.970376825 
0.4276698608 1.626042816 1.952375186 
1.255958688 1.747699526 1.962088708 
1.594995828 1.316503635 1.940787222 
0.7232986111 1.213340329 1.915201822 
0.06478580503 0.5188060405 0.4637108361 
0.04816166378 1.549572271 0.4711368659 
0.02652217274 0.4541054345 1.632819287 
0.04110300436 1.273582868 1.744170028 
0.05396719119 1.602398718 1.320218611 
0.06410215414 0.7548960562 1.21844535 
0.7585695309 1.953720085 0.2518668802 
0.4100861605 1.977355046 0.6778386715 
1.549264788 1.968824477 0.3602682431 
0.4672087845 1.938227909 1.540104453 
1.474301124 1.95258991 1.563175063 
1.25299874 1.924012928 0.7773079536 
0.504782171 0.4874751115 0.03738811037 
1.501351675 0.4796956697 0.06749151702 
0.5010589261 1.520181789 0.04318540875 
1.489432094 1.517120267 0.06639663502 
0.7409827558 0.04824376031 0.2518877093 
0.4051123138 0.05689018208 0.6760687226 
1.550444796 0.03104869067 0.3619275059 
0.4379938212 0.06359642759 1.533353013 
1.483259691 0.08070808707 1.546000494 
1.24749499 0.07589167933 0.7575086295 
1.936219012 0.4635731846 0.4949781112 
1.935916001 1.535244027 0.4936306303 
1.943875911 0.5301425847 1.531738282 
1.923529886 1.517871355 1.494756324 
SCALARS VOLUME double 1
LOOKUP_TABLE default
0.009312304148 
0.01265285804 
0.08015971131 
0.09190992329 
0.289630977 
0.02142832947 
0.02398391111 
0.02400517247 
0.04035621209 
0.03923208954 
0.04536753126 
0.04437773179 
0.007925191313 
0.0411862907 
0.02860049689 
0.01222508888 
0.1047797716 
0.02398641414 
0.03070946872 
0.02191299766 
0.09539238811 
0.02429750478 
0.04902766421 
0.0703432865 
0.02687827081 
0.01897189712 
0.08445607003 
0.03494164407 
0.01237661961 
0.03177349194 
0.003490278968 
0.01233002851 
0.004086675387 
0.09996317524 
0.09829628557 
0.1004544823 
0.005055535801 
0.007426916206 
0.0318808232 
0.0276143256 
0.01094800341 
0.01133527211 
0.02734645728 
0.0355972702 
0.03217060354 
0.03413972414 
0.01417681492 
0.0163453588 
0.01075627615 
0.08361430668 
0.03551899156 
0.01734307544 
0.01561258208 
0.03347213066 
0.02268963049 
0.03876116635 
0.009006727936 
0.0188215031 
0.02088661899 
0.03070653507 
0.01203177058 
0.009334557499 
0.03815424253 
0.03480580865 
0.00815076379 
0.005827382817 
0.03248438355 
0.003801610695 
0.07553188123 
0.06597250473 
0.04356196483 
0.01129430582 
0.01250807174 
0.003467779897 
0.007336526475 
0.01625359386 
0.01387027417 
0.0140846459 
0.01688065915 
0.02090464632 
0.008464430276 
0.0323498239 
0.01622869179 
0.02094864678 
0.02525428705 
0.01481826043 
0.01100078826 
0.02105339136 
0.01874774117 
0.02917448799 
0.01389051473 
0.01831830296 
0.0113740476 
0.01758683706 
0.008813147058 
0.01064141211 
0.03287618322 
0.0206170156 
0.01335868138 
0.01400591612 
0.0142541377 
0.007591945323 
0.03126656871 
0.0213705623 
0.01270260457 
0.007362964028 
0.007913623779 
0.02209320468 
0.02732748135 
0.00399006616 
0.004511310485 
0.00482523136 
0.01019070175 
0.01122764488 
0.01025120959 
0.01059900391 
0.0791256832 
0.06560519395 
0.05096668616 
0.114399179 
0.01259996329 
0.02823646223 
0.02337258515 
0.01491956001 
0.01484811259 
0.007168803799 
0.04402462031 
0.02123055632 
0.02675597324 
0.01534754643 
0.01855125878 
0.009759122589 
0.007343671394 
0.003432890796 
0.02579073979 
0.08205984686 
0.008606782421 
0.02866224401 
0.01104246469 
0.02008852363 
0.008273542272 
0.006072696293 
0.01027938631 
0.008169996791 
0.01405626317 
0.01403400549 
0.01779751555 
0.02650848925 
0.05476005327 
0.0798085588 
0.1497353349 
0.3020485368 
0.1782080097 
0.05102169133 
0.2451456683 
0.1548789644 
0.09403651545 
0.08011101714 
0.02202265585 
0.0161021758 
0.02608262467 
0.01904323383 
0.03168866655 
0.01735195076 
0.02776524114 
0.006037032669 
0.02358401409 
0.008629223802 
0 
0 
0 
0 
0 
0 
0 
0 
0 
0 
0 
0 
0 
0 
0 
0 
0 
0 
0 
0 
0 
0 
0 
0 
0 
0 
0 
0 
0 
0 
0 
0 
SCALARS PARTITION int 1
LOOKUP_TABLE default
17 
22 
15 
10 
12 
16 
4 
21 
20 
20 
14 
9 
19 
16 
23 
2 
14 
20 
20 
14 
19 
18 
11 
6 
5 
6 
18 
5 
5 
14 
17 
6 
22 
20 
20 
18 
17 
22 
21 
8 
17 
22 
7 
23 
18 
16 
1 
6 
24 
3 
7 
21 
21 
21 
6 
1 
8 
2 
11 
21 
14 
9 
5 
1 
0 
6 
5 
24 
11 
11 
1 
16 
5 
8 
8 
8 
17 
22 
17 
22 
5 
6 
19 
17 
22 
7 
7 
19 
2 
0 
16 
2 
24 
6 
8 
0 
19 
24 
17 
22 
2 
16 
7 
7 
0 
19 
5 
16 
16 
17 
22 
2 
9 
14 
5 
8 
23 
23 
16 
24 
21 
21 
6 
6 
8 
8 
7 
4 
24 
24 
2 
2 
2 
2 
3 
3 
0 
3 
8 
8 
8 
8 
8 
8 
14 
14 
14 
14 
4 
13 
12 
13 
11 
9 
10 
12 
1 
4 
9 
0 
0 
0 
9 
9 
9 
9 
9 
9 
2 
19 
8 
16 
21 
13 
0 
6 
2 
5 
7 
4 
14 
7 
22 
8 
24 
15 
0 
17 
6 
22 
9 
1 
17 
2 
19 
10 
17 
22 
19 
24 
