# vtk DataFile Version 3.0
MOAB 5.0.1
ASCII
DATASET UNSTRUCTURED_GRID
POINTS 208 double
0.3279861953 0.6282144594 0.352081097
0.217262812 0.5170611576 0.6228180287
0.2174594293 0.6434232644 0.650216997
0.305206235 0.5085413838 0.5294944084
0.2458623363 0.664168433 0.3297129137
0.04089170894 0.5181786299 0.5641062785
0 0.5850506824 0.5485531183
0.2352190645 0.6119836287 0.3516848834
0 0.4467342431 0.5647374911
0.1753327859 0.6370661568 0.6972887953
0.1896777063 0.7175456459 0.6532758912
0.09888795896 0.5012851339 0.6525062042
0.1451182589 0.5798372712 0.6058299754
0.1042265499 0.5083928845 0.6064611879
0.3979733658 0.5247722146 0.529890622
0.2031145089 0.5629437753 0.694229901
0.3843399459 0.5530119784 0.4615376441
0.302216087 0.5889659519 0.4391694607
0.2487122735 0.509202764 0.6678362628
0.1723765479 0.6795214218 0.5368457849
0.1918295319 0.6787158578 0.4895069592
0.2112825159 0.6779102938 0.4421681335
0.2200922281 0.6249199255 0.4168012774
0.1855176434 0.6268627243 0.2953711046
0.239702629 0.5468625275 0.3085404589
0.3066996515 0.5238448508 0.3960250363
0.2586426753 0.4489086606 0.325794717
0.3324697598 0.5630933583 0.3089366726
0.2503459009 0.5990473319 0.2865684893
0 0.5487999866 0.4799926324
0 0.476298595 0.3428716605
0 0.5125492908 0.4114321465
0.09940284216 0.5503085081 0.3481176592
0.1748743715 0.57467792 0.3173430743
0.04970142108 0.5185146703 0.3047442381
0 0.7233671216 0.5323687455
0 0.4600506824 0.6735531183
0 0.4333944238 0.4953660014
0 0.6050439771 0.3968697813
0 0.5458824048 0.3291202991
0 0.6642055493 0.4646192634
0 0.6975386634 0.3823074161
0 0.6154662146 0.3153689377
0 0.5950380118 0.6614148387
0 0.7300253412 0.6492765592
0.321826488 0.5109085539 0.3309086423
0.2038260094 0.6716630282 0.581864019
0.2126357215 0.6186726599 0.5564971629
0.2320887055 0.617867096 0.5091583372
0.2262691414 0.5904328961 0.6248501409
0.2350788536 0.5374425278 0.5994832849
0.3142125645 0.5819131224 0.5315265205
0.244085183 0.6108142664 0.601515397
0.2036293921 0.5453009214 0.5544650507
0.1145296786 0.4906992779 0.2959416228
0.1642310997 0.5224931156 0.3393150439
0.2290593572 0.4946777232 0.3305124286
0.2489088908 0.6355648709 0.6952352311
0.3414794043 0.5254335948 0.6682324765
0.3211561333 0.491012085 0.4564237188
0.07644482691 0.582515266 0.6095200822
0.1119979449 0.6468519022 0.6549338859
0.07644482691 0.7208317052 0.5933357094
0.1344410769 0.5656217701 0.6979200078
0.1528896538 0.7182962889 0.6543026734
0.04089170894 0.7948115083 0.531737533
0.03555311798 0.6493873185 0.593966922
0.3949832178 0.6051967827 0.4395656744
0.02431165977 0.4977822989 0.5282263777
0.1948196799 0.5982912897 0.5798319068
0.131484839 0.608077035 0.5374769974
0.02431165977 0.5769371659 0.4442925228
0.02431165977 0.5044357743 0.3071715509
0.200639244 0.6257254895 0.4641401031
0.0652033687 0.5692266856 0.5275951651
0.1060950776 0.6406710723 0.5269639526
0.08178341787 0.5896230166 0.563475066
0.1840591949 0.6053291585 0.4282602023
0.1392164496 0.6387287598 0.4650859831
0.09832474062 0.5539445538 0.396345706
0.1237145019 0.5680234498 0.3939183932
0.1480261617 0.5857383915 0.4397191271
0.1557964987 0.6591250908 0.500965884
0.04862331954 0.5354905353 0.4223437746
0.09832474062 0.5672843731 0.4657171957
0.1597475351 0.5876142168 0.3824594683
0.04862331954 0.5488303546 0.4917152643
0.07401308085 0.4895566787 0.3634853297
0.04862331954 0.522150716 0.3529722849
0.02431165977 0.5635973465 0.3749210331
0.09940284216 0.5036355747 0.3610580168
0.2307354999 0.6771047299 0.3948293078
0.2260725241 0.4640707893 0.5974511727
0.1130362621 0.4554025162 0.5810943319
0.153927971 0.5268469029 0.5804631193
0.3235026307 0.6933355606 0.3952255215
0.1622227999 0.4914993886 0.6948611135
0.2084530998 0.5700515259 0.6481848848
0.3994667823 0.5400756815 0.39642125
0.3173429234 0.5760296551 0.3740530667
0.3120360155 0.6692961256 0.2919604167
0.2773682043 0.7081310455 0.6499285176
0.2579152203 0.7089366095 0.6972673433
0.2264657588 0.716795003 0.6522491091
0.3594920632 0.6721770719 0.6722967009
0.3354991082 0.686282731 0.4875825813
0.4069796953 0.5981439531 0.5319227342
0.3368523138 0.6270450972 0.6019116107
0.2667249324 0.6559462412 0.6719004872
0.2547284549 0.6629990707 0.5795434274
0.2427319774 0.6700519003 0.4871863676
0.3128593589 0.6411507563 0.4171974911
0.3248558363 0.6340979267 0.5095545509
0.3504857337 0.5988053334 0.6702645887
0.2577186029 0.5825745026 0.669868375
0.3278459844 0.5536733586 0.5998794985
0.2352754709 0.6638046347 0.6268822531
0.2232789934 0.6708574643 0.5345251933
0.1491042632 0.5354294125 0.404431438
0.1988056843 0.5205503169 0.4607452167
0.173415923 0.5531443542 0.4502321719
0.1491042632 0.4887564791 0.4173717956
0.1237145019 0.5213505164 0.4068587508
0.2915728151 0.5367811476 0.4611414304
0.2214454337 0.5656822916 0.5311303069
0.2094489562 0.5727351212 0.4387732471
0.2139325207 0.50761402 0.3956288226
0.2245757926 0.5597988244 0.373656853
0.2283890025 0.4747812543 0.4560275051
0.2124391042 0.4923105531 0.5290981947
0.1642310997 0.4758201823 0.3522554015
0.1899959722 0.5735406852 0.4861120728
0.18118626 0.6265310535 0.5114789288
0.07401308085 0.5162363173 0.5022283091
0.02431165977 0.4844424796 0.458854888
0.04970142108 0.4651882616 0.5387394225
0.04970142108 0.4518484423 0.4693679328
0.09940284216 0.48364228 0.5127413539
0.04970142108 0.4385086229 0.3999964431
0.02431165977 0.4711026603 0.3894833983
0.1237145019 0.5346903358 0.4762302405
0.1491042632 0.5020962984 0.4867432853
0.09940284216 0.4703024607 0.4433698642
0.07401308085 0.502896498 0.4328568194
0.09059313002 0.5366326483 0.53810821
0.1627376831 0.4738565346 0.5550962633
0.1402945511 0.5550866667 0.5121101414
0.1646062109 0.6061347225 0.475599028
0.1149047898 0.5876807041 0.5015970965
0.04862331954 0.6154965827 0.3270915696
0.07401308085 0.5829025454 0.3376046144
0.0729349793 0.6332115244 0.3728923035
0.09832474062 0.6006174871 0.3834053483
0.04862331954 0.5688236494 0.3400319272
0.09724663907 0.6509264661 0.4186930375
0.0729349793 0.5865385911 0.3858326612
0.1226364004 0.6183324288 0.4292060823
0.07401308085 0.536229612 0.350544972
0.1206893859 0.6546781167 0.30417372
0.08465635272 0.6350873497 0.3156326448
0.110046114 0.6024933124 0.3261456896
0.1810340788 0.6919838255 0.3385155291
0.170390807 0.6397990211 0.3604874987
0.1450010457 0.6723930584 0.3499744539
0.1693127054 0.6901080002 0.3957751878
0.1947024667 0.6575139628 0.4062882326
0.1332796723 0.6705172332 0.4072341126
0.1586694336 0.6379231958 0.4177471575
0.1089680125 0.6528022914 0.3614333787
0.1343577738 0.6202082541 0.3719464235
0.1027706116 0.6863548159 0.3942427892
0.07845895186 0.6686398742 0.3484420553
0.114491985 0.6882306412 0.3369831305
0.0729349793 0.7381948496 0.4390197781
0.1138266882 0.6713227971 0.4545729383
0.1304067374 0.6917191281 0.4904528392
0.1060950776 0.7789875116 0.5107795798
0.0729349793 0.5998784104 0.4552041509
0.1498597214 0.6909135641 0.4431140135
0.1664397706 0.7113098951 0.4789939144
0.1226751268 0.6610674033 0.5628438535
0.1860099678 0.651281658 0.6051987629
0.1173365358 0.6539596527 0.6088888697
0.1582282448 0.7254040395 0.6082576571
0.1806713768 0.6441739074 0.6512437791
0.1397796679 0.5727295207 0.6518749916
0.08951502847 0.6202747414 0.4910840517
0.1752494827 0.6583195268 0.4536270583
0.04862331954 0.7204799079 0.3932190442
0.02431165977 0.7027649662 0.3474183102
0.04089170894 0.6564950691 0.5479219058
0.02431165977 0.6360987381 0.5120420049
0.04862331954 0.6871467939 0.4755308915
0.08178341787 0.7279394558 0.5472906932
0.0652033687 0.7075431248 0.5114107924
0.04862331954 0.5821634687 0.4094034169
0.02431165977 0.6102702799 0.3619806754
0.02431165977 0.7152536051 0.42810815
0.3188396549 0.48030162 0.5978473864
0.1675613909 0.4986071391 0.6488160973
0.2308962319 0.4888213938 0.6911710067
0.2399025613 0.5621931323 0.6932031189
0.03555311798 0.5243873185 0.718966922
0.03555311798 0.5110708793 0.6101512948
0.07110623595 0.5754075154 0.6555650984
0.1066593539 0.6397441516 0.7009789021
0.07110623595 0.7137239547 0.6393807257
0.03555311798 0.6560455381 0.7108747356
CELLS 975 2925
2 15 9
2 15 185
2 9 185
2 185 63
2 9 63
2 15 96
2 185 96
2 99 28
2 28 7
2 7 99
2 99 0
2 28 0
2 7 0
2 7 67
2 67 99
2 67 0
2 99 27
2 100 4
2 4 0
2 100 0
2 95 100
2 95 0
2 95 4
2 111 95
2 111 0
2 111 7
2 7 4
2 4 111
2 67 111
2 57 18
2 18 1
2 1 57
2 57 49
2 18 49
2 1 49
2 2 57
2 1 2
2 2 49
2 53 92
2 92 1
2 1 53
2 53 94
2 92 94
2 1 94
2 70 12
2 12 1
2 1 70
2 70 69
2 12 69
2 1 69
2 53 70
2 53 69
2 12 94
2 70 94
2 92 49
2 53 49
2 2 53
2 2 69
2 92 18
2 1 97
2 97 69
2 97 12
2 97 2
2 199 97
2 97 200
2 200 199
2 199 1
2 200 1
2 12 199
2 13 199
2 1 13
2 13 12
2 94 13
2 1 201
2 97 201
2 200 201
2 2 201
2 57 201
2 103 2
2 10 2
2 15 2
2 10 15
2 103 57
2 103 46
2 2 46
2 2 19
2 19 46
2 103 49
2 49 46
2 69 19
2 69 46
2 46 53
2 181 97
2 2 181
2 181 184
2 97 184
2 2 184
2 10 184
2 181 10
2 15 97
2 184 15
2 181 69
2 19 181
2 3 16
2 3 59
2 16 59
2 14 3
2 51 16
2 16 115
2 115 51
2 51 3
2 115 3
2 18 3
2 51 18
2 18 115
2 14 115
2 14 18
2 123 16
2 3 123
2 123 59
2 3 92
2 92 129
2 129 3
2 3 128
2 128 129
2 123 128
2 123 129
2 128 59
2 51 123
2 129 50
2 92 50
2 3 50
2 51 50
2 129 51
2 50 18
2 3 198
2 14 198
2 18 198
2 4 91
2 7 91
2 111 91
2 7 23
2 4 161
2 161 23
2 161 91
2 161 7
2 8 5
2 5 135
2 5 76
2 76 13
2 13 5
2 5 144
2 76 144
2 13 144
2 144 93
2 93 5
2 144 135
2 93 13
2 8 68
2 5 68
2 5 74
2 76 74
2 144 74
2 74 133
2 133 5
2 74 68
2 133 68
2 133 135
2 133 144
2 6 8
2 68 6
2 6 5
2 76 60
2 60 5
2 60 13
2 11 13
2 5 11
2 11 60
2 190 76
2 5 190
2 190 74
2 190 68
2 190 6
2 60 190
2 60 6
2 203 8
2 5 203
2 11 203
2 203 60
2 6 203
2 37 8
2 6 29
2 29 37
2 6 35
2 35 40
2 40 29
2 8 36
2 36 43
2 43 6
2 43 44
2 44 35
2 35 190
2 6 191
2 35 191
2 190 191
2 68 191
2 35 66
2 66 6
2 66 190
2 60 66
2 191 29
2 68 29
2 203 66
2 66 43
2 203 43
2 37 68
2 40 191
2 36 203
2 44 66
2 30 39
2 87 72
2 72 30
2 39 72
2 39 42
2 7 24
2 24 99
2 7 17
2 17 25
2 25 7
2 17 99
2 25 99
2 25 24
2 67 17
2 111 22
2 22 91
2 22 7
2 22 17
2 17 111
2 22 127
2 127 7
2 127 17
2 25 127
2 24 127
2 22 85
2 85 7
2 85 127
2 85 24
2 7 33
2 24 33
2 85 33
2 7 162
2 22 162
2 91 162
2 161 162
2 162 23
2 85 162
2 23 160
2 160 7
2 160 162
2 160 85
2 160 33
2 105 111
2 67 105
2 9 64
2 64 184
2 184 9
2 9 182
2 64 182
2 184 182
2 12 182
2 9 12
2 12 184
2 15 12
2 182 185
2 12 185
2 9 61
2 64 61
2 182 61
2 60 61
2 9 60
2 60 182
2 185 60
2 61 63
2 60 63
2 183 184
2 181 183
2 11 63
2 11 96
2 11 185
2 185 13
2 96 13
2 203 204
2 204 202
2 202 203
2 204 11
2 202 11
2 63 204
2 204 60
2 70 76
2 76 94
2 76 12
2 180 76
2 70 180
2 180 12
2 12 181
2 181 70
2 181 180
2 180 182
2 76 182
2 12 183
2 180 183
2 183 182
2 76 185
2 13 15
2 15 199
2 94 144
2 94 93
2 199 96
2 115 58
2 18 58
2 14 58
2 115 106
2 58 198
2 25 16
2 16 99
2 16 17
2 98 25
2 98 99
2 59 25
2 16 112
2 112 17
2 17 51
2 112 51
2 106 112
2 106 51
2 67 112
2 17 123
2 25 123
2 110 22
2 17 110
2 110 48
2 22 48
2 17 48
2 51 109
2 109 17
2 51 48
2 109 48
2 109 110
2 109 112
2 110 112
2 110 111
2 110 67
2 22 125
2 125 17
2 125 48
2 124 48
2 17 124
2 124 125
2 123 124
2 123 125
2 124 51
2 125 127
2 125 25
2 18 114
2 114 115
2 114 51
2 114 50
2 57 114
2 114 49
2 49 50
2 46 20
2 19 20
2 19 132
2 132 20
2 132 46
2 70 132
2 19 70
2 132 69
2 19 82
2 132 82
2 70 82
2 82 20
2 180 19
2 82 75
2 75 19
2 75 180
2 75 70
2 179 82
2 117 20
2 20 47
2 47 46
2 47 117
2 21 117
2 21 20
2 21 47
2 47 132
2 47 73
2 132 73
2 20 73
2 21 73
2 73 82
2 73 179
2 110 91
2 91 21
2 22 21
2 110 21
2 117 48
2 47 48
2 21 48
2 117 110
2 22 73
2 48 73
2 91 165
2 22 165
2 21 165
2 21 187
2 22 187
2 73 187
2 179 187
2 187 165
2 165 178
2 178 187
2 85 125
2 125 77
2 22 77
2 85 77
2 73 125
2 77 73
2 162 165
2 77 165
2 165 85
2 187 77
2 161 158
2 158 162
2 160 158
2 24 27
2 27 98
2 98 24
2 24 45
2 27 45
2 98 45
2 25 45
2 24 56
2 56 25
2 56 127
2 24 55
2 56 55
2 127 55
2 85 55
2 55 33
2 56 45
2 26 25
2 45 26
2 26 98
2 56 126
2 126 25
2 126 127
2 125 126
2 123 126
2 126 59
2 29 31
2 40 38
2 38 31
2 68 71
2 71 134
2 134 68
2 71 29
2 134 29
2 71 31
2 31 134
2 191 71
2 40 71
2 38 71
2 31 30
2 38 39
2 139 72
2 139 30
2 89 72
2 139 89
2 89 30
2 139 31
2 31 89
2 89 39
2 38 89
2 134 139
2 71 139
2 71 89
2 118 32
2 32 90
2 90 118
2 118 80
2 32 80
2 90 80
2 118 85
2 32 85
2 80 85
2 32 55
2 55 118
2 55 90
2 32 54
2 54 55
2 54 90
2 32 34
2 34 90
2 32 33
2 32 150
2 150 34
2 32 157
2 157 90
2 157 80
2 150 157
2 150 80
2 34 157
2 32 160
2 160 150
2 32 169
2 169 80
2 169 85
2 160 169
2 150 169
2 34 87
2 90 87
2 72 157
2 87 157
2 36 202
2 191 65
2 65 190
2 202 43
2 134 136
2 138 143
2 136 143
2 143 134
2 143 139
2 136 133
2 133 134
2 41 38
2 41 42
2 38 196
2 196 71
2 196 89
2 197 38
2 196 197
2 197 71
2 197 40
2 39 196
2 41 197
2 41 196
2 42 196
2 196 72
2 197 191
2 189 41
2 189 196
2 189 42
2 202 66
2 207 66
2 207 43
2 207 44
2 116 103
2 116 46
2 47 116
2 116 49
2 47 53
2 53 116
2 53 132
2 116 52
2 52 47
2 116 117
2 52 117
2 52 48
2 52 50
2 50 116
2 50 47
2 53 50
2 124 52
2 124 47
2 132 131
2 131 73
2 131 47
2 73 124
2 124 131
2 124 50
2 131 53
2 129 53
2 47 129
2 129 131
2 124 129
2 109 52
2 52 51
2 117 109
2 116 57
2 114 116
2 114 52
2 109 107
2 52 107
2 51 107
2 106 107
2 109 106
2 114 107
2 114 106
2 52 108
2 108 107
2 108 109
2 108 114
2 116 108
2 116 109
2 129 145
2 92 145
2 53 145
2 53 146
2 132 146
2 131 146
2 141 146
2 53 141
2 141 131
2 129 141
2 146 145
2 141 145
2 70 146
2 94 145
2 145 144
2 144 53
2 144 146
2 144 70
2 126 55
2 55 130
2 56 130
2 126 130
2 55 121
2 121 126
2 118 121
2 118 126
2 121 90
2 126 85
2 116 102
2 114 102
2 114 113
2 126 128
2 76 193
2 193 60
2 193 182
2 193 61
2 60 62
2 61 62
2 193 190
2 66 62
2 204 61
2 204 66
2 204 62
2 205 204
2 61 205
2 204 206
2 206 205
2 206 61
2 62 206
2 206 66
2 74 65
2 74 193
2 74 194
2 74 191
2 194 191
2 204 207
2 206 207
2 110 105
2 105 112
2 68 86
2 86 133
2 86 134
2 86 74
2 71 86
2 86 191
2 75 76
2 76 148
2 148 75
2 148 70
2 147 132
2 82 147
2 147 70
2 147 75
2 147 148
2 144 148
2 147 146
2 147 144
2 83 86
2 71 83
2 83 134
2 83 139
2 83 89
2 195 86
2 71 195
2 195 83
2 153 89
2 71 153
2 153 196
2 195 153
2 195 196
2 153 83
2 86 192
2 192 195
2 192 71
2 197 195
2 197 192
2 191 192
2 88 87
2 88 72
2 89 88
2 139 88
2 88 157
2 88 153
2 153 157
2 153 72
2 125 131
2 131 147
2 147 73
2 147 125
2 147 77
2 78 147
2 73 78
2 78 82
2 78 77
2 82 187
2 187 78
2 74 75
2 74 148
2 74 84
2 84 78
2 78 74
2 84 148
2 78 148
2 78 75
2 133 84
2 86 84
2 133 148
2 86 186
2 186 74
2 186 84
2 78 186
2 75 186
2 186 194
2 86 194
2 75 193
2 74 176
2 176 75
2 186 176
2 75 175
2 175 82
2 78 175
2 175 186
2 193 180
2 80 81
2 81 120
2 120 80
2 80 77
2 81 77
2 120 77
2 80 125
2 125 120
2 81 147
2 147 120
2 78 81
2 167 81
2 80 167
2 167 77
2 165 80
2 165 167
2 167 78
2 187 167
2 81 148
2 81 84
2 156 81
2 78 156
2 156 84
2 175 174
2 174 78
2 174 186
2 177 186
2 78 177
2 177 174
2 156 177
2 156 174
2 177 84
2 167 156
2 174 178
2 78 178
2 167 178
2 174 167
2 187 175
2 79 81
2 81 122
2 122 79
2 79 80
2 122 80
2 79 90
2 90 122
2 79 87
2 87 122
2 122 143
2 81 143
2 79 143
2 79 88
2 79 139
2 87 139
2 79 138
2 138 87
2 122 138
2 143 84
2 84 79
2 83 88
2 79 83
2 83 143
2 83 84
2 155 88
2 153 155
2 155 79
2 153 79
2 152 81
2 156 152
2 152 79
2 156 79
2 152 155
2 155 156
2 152 153
2 79 157
2 80 152
2 150 152
2 79 150
2 150 153
2 155 83
2 83 156
2 120 122
2 120 90
2 120 118
2 118 125
2 165 169
2 167 169
2 167 152
2 167 150
2 120 140
2 81 140
2 122 140
2 143 140
2 84 140
2 140 147
2 148 140
2 84 134
2 177 86
2 83 177
2 177 155
2 177 195
2 153 177
2 136 84
2 133 140
2 136 140
2 165 160
2 177 192
2 186 192
2 194 192
2 121 122
2 120 121
2 150 159
2 159 160
2 137 135
2 137 144
2 137 145
2 104 101
2 104 108
2 101 108
2 108 102
2 101 109
2 107 101
2 107 104
2 104 113
2 113 107
2 114 104
2 122 142
2 118 119
2 119 120
2 119 121
2 119 125
2 119 126
2 123 119
2 119 124
2 119 128
2 119 129
2 119 131
2 119 141
2 141 120
2 141 121
2 120 131
2 141 122
2 141 140
2 146 120
2 146 140
2 141 142
2 142 140
2 136 122
2 133 137
2 137 140
2 144 140
2 141 137
2 137 146
2 149 150
2 159 149
2 149 189
2 196 149
2 151 149
2 149 152
2 152 151
2 151 153
2 149 153
2 149 168
2 168 151
2 168 152
2 150 168
2 159 168
2 168 171
2 149 171
2 151 171
2 171 159
2 149 188
2 188 151
2 188 171
2 188 189
2 195 149
2 188 195
2 195 151
2 188 196
2 167 168
2 168 169
2 159 169
2 151 154
2 154 155
2 155 151
2 151 156
2 154 156
2 166 154
2 151 166
2 166 156
2 167 151
2 167 166
2 166 168
2 154 170
2 170 166
2 170 151
2 170 171
2 168 170
2 173 154
2 151 173
2 154 177
2 177 173
2 177 151
2 173 195
2 173 174
2 154 174
2 166 174
2 161 163
2 158 163
2 162 163
2 163 160
2 159 163
2 172 163
2 172 159
2 168 163
2 169 163
2 171 172
2 168 172
2 165 163
2 164 163
2 164 165
2 169 164
2 164 168
2 166 164
2 164 167
2 192 173
2 197 188
2 186 173
CELL_TYPES 975
3
3
3
3
3
3
3
3
3
3
3
3
3
3
3
3
3
3
3
3
3
3
3
3
3
3
3
3
3
3
3
3
3
3
3
3
3
3
3
3
3
3
3
3
3
3
3
3
3
3
3
3
3
3
3
3
3
3
3
3
3
3
3
3
3
3
3
3
3
3
3
3
3
3
3
3
3
3
3
3
3
3
3
3
3
3
3
3
3
3
3
3
3
3
3
3
3
3
3
3
3
3
3
3
3
3
3
3
3
3
3
3
3
3
3
3
3
3
3
3
3
3
3
3
3
3
3
3
3
3
3
3
3
3
3
3
3
3
3
3
3
3
3
3
3
3
3
3
3
3
3
3
3
3
3
3
3
3
3
3
3
3
3
3
3
3
3
3
3
3
3
3
3
3
3
3
3
3
3
3
3
3
3
3
3
3
3
3
3
3
3
3
3
3
3
3
3
3
3
3
3
3
3
3
3
3
3
3
3
3
3
3
3
3
3
3
3
3
3
3
3
3
3
3
3
3
3
3
3
3
3
3
3
3
3
3
3
3
3
3
3
3
3
3
3
3
3
3
3
3
3
3
3
3
3
3
3
3
3
3
3
3
3
3
3
3
3
3
3
3
3
3
3
3
3
3
3
3
3
3
3
3
3
3
3
3
3
3
3
3
3
3
3
3
3
3
3
3
3
3
3
3
3
3
3
3
3
3
3
3
3
3
3
3
3
3
3
3
3
3
3
3
3
3
3
3
3
3
3
3
3
3
3
3
3
3
3
3
3
3
3
3
3
3
3
3
3
3
3
3
3
3
3
3
3
3
3
3
3
3
3
3
3
3
3
3
3
3
3
3
3
3
3
3
3
3
3
3
3
3
3
3
3
3
3
3
3
3
3
3
3
3
3
3
3
3
3
3
3
3
3
3
3
3
3
3
3
3
3
3
3
3
3
3
3
3
3
3
3
3
3
3
3
3
3
3
3
3
3
3
3
3
3
3
3
3
3
3
3
3
3
3
3
3
3
3
3
3
3
3
3
3
3
3
3
3
3
3
3
3
3
3
3
3
3
3
3
3
3
3
3
3
3
3
3
3
3
3
3
3
3
3
3
3
3
3
3
3
3
3
3
3
3
3
3
3
3
3
3
3
3
3
3
3
3
3
3
3
3
3
3
3
3
3
3
3
3
3
3
3
3
3
3
3
3
3
3
3
3
3
3
3
3
3
3
3
3
3
3
3
3
3
3
3
3
3
3
3
3
3
3
3
3
3
3
3
3
3
3
3
3
3
3
3
3
3
3
3
3
3
3
3
3
3
3
3
3
3
3
3
3
3
3
3
3
3
3
3
3
3
3
3
3
3
3
3
3
3
3
3
3
3
3
3
3
3
3
3
3
3
3
3
3
3
3
3
3
3
3
3
3
3
3
3
3
3
3
3
3
3
3
3
3
3
3
3
3
3
3
3
3
3
3
3
3
3
3
3
3
3
3
3
3
3
3
3
3
3
3
3
3
3
3
3
3
3
3
3
3
3
3
3
3
3
3
3
3
3
3
3
3
3
3
3
3
3
3
3
3
3
3
3
3
3
3
3
3
3
3
3
3
3
3
3
3
3
3
3
3
3
3
3
3
3
3
3
3
3
3
3
3
3
3
3
3
3
3
3
3
3
3
3
3
3
3
3
3
3
3
3
3
3
3
3
3
3
3
3
3
3
3
3
3
3
3
3
3
3
3
3
3
3
3
3
3
3
3
3
3
3
3
3
3
3
3
3
3
3
3
3
3
3
3
3
3
3
3
3
3
3
3
3
3
3
3
3
3
3
3
3
3
3
3
3
3
3
3
3
3
3
3
3
3
3
3
3
3
3
3
3
3
3
3
3
3
3
3
3
3
3
3
3
3
3
3
3
3
3
3
3
3
3
3
3
3
3
3
3
3
3
3
3
3
3
3
3
3
3
3
3
3
3
3
3
3
3
3
3
3
3
3
3
3
3
3
3
3
3
3
3
3
3
3
3
3
3
3
3
3
3
3
3
3
3
3
3
3
3
3
3
3
3
3
3
3
3
3
3
3
3
3
3
3
3
3
3
3
3
3
3
3
3
3
3
3
3
3
3
3
3
3
3
3
3
3
3
3
3
3
3
3
3
3
3
3
3
3
3
3
3
3
3
3
3
3
3
3
3
3
3
3
3
3
3
3
3
3
3
3
3
3
3
3
3
3
POINT_DATA 208
SCALARS GLOBAL_ID int 1
LOOKUP_TABLE default
28 
30 
32 
46 
50 
52 
74 
83 
95 
191 
192 
193 
209 
210 
211 
215 
241 
242 
243 
244 
245 
246 
247 
255 
262 
271 
272 
274 
278 
294 
295 
296 
322 
323 
324 
501 
511 
581 
589 
590 
591 
593 
596 
611 
614 
1218 
1298 
1299 
1300 
1301 
1302 
1303 
1304 
1305 
1427 
1432 
1436 
1456 
1465 
1478 
1498 
1499 
1500 
1504 
1505 
1507 
1511 
1630 
1690 
1691 
1692 
1693 
1694 
1695 
1696 
1697 
1698 
1699 
1700 
1701 
1702 
1703 
1704 
1705 
1706 
1707 
1708 
1709 
1710 
1711 
1712 
1728 
1826 
1837 
1838 
1861 
1862 
1863 
2280 
2281 
2604 
3044 
3087 
3089 
3106 
3116 
3121 
3122 
3123 
3124 
3125 
3126 
3127 
3139 
3142 
3143 
3153 
3154 
3220 
3221 
3222 
3223 
3224 
3226 
3227 
3228 
3232 
3233 
3235 
3236 
3240 
3244 
3245 
3259 
3260 
3261 
3262 
3263 
3264 
3265 
3266 
3267 
3268 
3269 
3279 
3280 
3281 
3296 
3297 
3837 
3839 
3840 
3841 
3842 
3843 
3844 
3845 
3846 
3855 
3856 
3857 
3858 
3859 
3860 
3862 
3863 
3864 
3865 
3866 
3867 
3886 
3888 
3904 
3912 
3915 
3917 
3925 
3930 
3934 
3935 
3938 
3939 
3962 
3963 
3964 
3965 
3967 
3968 
3971 
3972 
3990 
3991 
3992 
3993 
3994 
4005 
4006 
4007 
4384 
4429 
4430 
4504 
4716 
4717 
4718 
4719 
4850 
4866 
SCALARS LOCAL_ID_L1 int 1
LOOKUP_TABLE default
0 
1 
2 
3 
4 
5 
6 
7 
8 
9 
10 
11 
12 
13 
14 
15 
16 
17 
18 
19 
20 
21 
22 
23 
24 
25 
26 
27 
28 
29 
30 
31 
32 
33 
34 
35 
36 
37 
38 
39 
40 
41 
42 
43 
44 
45 
46 
47 
48 
49 
50 
51 
52 
53 
54 
55 
56 
57 
58 
59 
60 
61 
62 
63 
64 
65 
66 
67 
68 
69 
70 
71 
72 
73 
74 
75 
76 
77 
78 
79 
80 
81 
82 
83 
84 
85 
86 
87 
88 
89 
90 
91 
92 
93 
94 
95 
96 
97 
98 
99 
100 
101 
102 
103 
104 
105 
106 
107 
108 
109 
110 
111 
112 
113 
114 
115 
116 
117 
118 
119 
120 
121 
122 
123 
124 
125 
126 
127 
128 
129 
130 
131 
132 
133 
134 
135 
136 
137 
138 
139 
140 
141 
142 
143 
144 
145 
146 
147 
148 
149 
150 
151 
152 
153 
154 
155 
156 
157 
158 
159 
160 
161 
162 
163 
164 
165 
166 
167 
168 
169 
170 
171 
172 
173 
174 
175 
176 
177 
178 
179 
180 
181 
182 
183 
184 
185 
186 
187 
188 
189 
190 
191 
192 
193 
194 
195 
196 
197 
198 
199 
200 
201 
202 
203 
204 
205 
206 
207 
CELL_DATA 975
SCALARS GLOBAL_ID int 1
LOOKUP_TABLE default
731 
754 
756 
757 
758 
759 
760 
1214 
1215 
1216 
1217 
1218 
1219 
1220 
1221 
1222 
1228 
1239 
1240 
1241 
1244 
1246 
1247 
1258 
1259 
1260 
1261 
1262 
1263 
1322 
1323 
1324 
1325 
1326 
1327 
1328 
1329 
1330 
1331 
1332 
1333 
1334 
1335 
1336 
1337 
1338 
1339 
1340 
1341 
1342 
1343 
1344 
1345 
1346 
1347 
1348 
1349 
1350 
1351 
1352 
1353 
1354 
1355 
1361 
1362 
1363 
1364 
1365 
1370 
1371 
1372 
1373 
1374 
1377 
1378 
1379 
1386 
1387 
1413 
1414 
1418 
1419 
1420 
1424 
1425 
1426 
1428 
1429 
1430 
1431 
1432 
1433 
1434 
1435 
1436 
1437 
1438 
1439 
1440 
1442 
1443 
1444 
1445 
2062 
2065 
2066 
2075 
2078 
2079 
2080 
2081 
2082 
2083 
2084 
2085 
2086 
2087 
2088 
2089 
2090 
2091 
2092 
2093 
2098 
2099 
2100 
2101 
2103 
2105 
2106 
2107 
2108 
2109 
2110 
2111 
2114 
2117 
2118 
2238 
2239 
2240 
2241 
2243 
2246 
2247 
2248 
2287 
2291 
2292 
2293 
2294 
2295 
2296 
2297 
2298 
2299 
2300 
2303 
2305 
2306 
2307 
2308 
2309 
2310 
2311 
2312 
2313 
2314 
2315 
2316 
2317 
2318 
2319 
2320 
2321 
2322 
2323 
2324 
2325 
2326 
2327 
2328 
2329 
2330 
2331 
2334 
2335 
2337 
2338 
2339 
3228 
3229 
3230 
3231 
3232 
3233 
3234 
3235 
3236 
3237 
3238 
3239 
3240 
3241 
3242 
3243 
3244 
3245 
3246 
3247 
3248 
3249 
3250 
3251 
3252 
3253 
3254 
3255 
3256 
3343 
3360 
3374 
3385 
3423 
3518 
3519 
3520 
3521 
3522 
3523 
3524 
3525 
3526 
3527 
3528 
3529 
3530 
3531 
3532 
3533 
3534 
3535 
3536 
3537 
3538 
3539 
3540 
3541 
3542 
3543 
3546 
3547 
3548 
3549 
3550 
3551 
3552 
3553 
3554 
3555 
3556 
5173 
5174 
5787 
5788 
5789 
5790 
5791 
5792 
5793 
5794 
5795 
5796 
5797 
5798 
5799 
5800 
5801 
5802 
5803 
5804 
5805 
5806 
5807 
5823 
5824 
5826 
5827 
5828 
5829 
5830 
5837 
5838 
5839 
5840 
5841 
5843 
5855 
6351 
6352 
6353 
6354 
6355 
6356 
6357 
6358 
6359 
6360 
6361 
6362 
6363 
6364 
6365 
6366 
6367 
6368 
6369 
6373 
6402 
6403 
6404 
6407 
6411 
7104 
7105 
7106 
7107 
7108 
7112 
7117 
7118 
7119 
7120 
7121 
7122 
7123 
7124 
7125 
7126 
7127 
7128 
7129 
7130 
7131 
7132 
7133 
7134 
7135 
7136 
7137 
7138 
7139 
7140 
7141 
7142 
7143 
7144 
7145 
7146 
7147 
7148 
7149 
7150 
7153 
7154 
7156 
7157 
7160 
7161 
7162 
7175 
7176 
7178 
7179 
7180 
7181 
7182 
7183 
7184 
7185 
7186 
7187 
7193 
7197 
7198 
7201 
7202 
7208 
7214 
7215 
7217 
7218 
7220 
7221 
7222 
7223 
7224 
7225 
7226 
7227 
7228 
7231 
7232 
7233 
7234 
7235 
7244 
7245 
7246 
7248 
7249 
7250 
7251 
7252 
7253 
7263 
7264 
7265 
7266 
7268 
7269 
7273 
7274 
7275 
7276 
7277 
7278 
7279 
7280 
7281 
7282 
7283 
7465 
7470 
7471 
7607 
7608 
7609 
7610 
7611 
7612 
7613 
7614 
7615 
7616 
7617 
7618 
7619 
7620 
7621 
7627 
7936 
7938 
7939 
7940 
7941 
7942 
7943 
7944 
7949 
8331 
8333 
8334 
8335 
8336 
8337 
8338 
8339 
8341 
8342 
8343 
8344 
8346 
8348 
8349 
8350 
8352 
8353 
8354 
8355 
8356 
8357 
8359 
8361 
8362 
8363 
8364 
9020 
9021 
9022 
9023 
9024 
9025 
9026 
9027 
9028 
9029 
9030 
9031 
9032 
9033 
9034 
9035 
9037 
9038 
9043 
9046 
9047 
9048 
9049 
9050 
9051 
9052 
9053 
9054 
9055 
9056 
9057 
9058 
9059 
9060 
9061 
9075 
9076 
10303 
12280 
12281 
12482 
13033 
13035 
13037 
13038 
13039 
13047 
13050 
13078 
13079 
13080 
13081 
13082 
13083 
13084 
13085 
13086 
13087 
13088 
13089 
13091 
13092 
13094 
13108 
13109 
13111 
13202 
13203 
13205 
13207 
20154 
20156 
20157 
20158 
20159 
20160 
20161 
20162 
20163 
20164 
20165 
20166 
20167 
20168 
20169 
20170 
20171 
20172 
20173 
20174 
20175 
20176 
20177 
20178 
20179 
20180 
20181 
20182 
20183 
20184 
20185 
20186 
20187 
20188 
20189 
20190 
20191 
20192 
20193 
20194 
20195 
20196 
20197 
20198 
20199 
20200 
20201 
20202 
20203 
20204 
20205 
20206 
20207 
20208 
20209 
20210 
20211 
20212 
20213 
20214 
20215 
20216 
20217 
20218 
20219 
20220 
21691 
21692 
21693 
21694 
21696 
21697 
21698 
21699 
21701 
21704 
21884 
21886 
21927 
22005 
22070 
22071 
22072 
22073 
22074 
22075 
22077 
22081 
22082 
22083 
22084 
22089 
22090 
22094 
22095 
22096 
22102 
22114 
22217 
22218 
22219 
22220 
22221 
22239 
22240 
23253 
23254 
23711 
23712 
23713 
23714 
23715 
23716 
23717 
23718 
23719 
23720 
23721 
23722 
23723 
23724 
23725 
23726 
23727 
23728 
23729 
23730 
23731 
23732 
23733 
23734 
23735 
23736 
23737 
23738 
23739 
23740 
23741 
23742 
23743 
23744 
23745 
23746 
23747 
23748 
23750 
23751 
23752 
23753 
23754 
23755 
23756 
23757 
23759 
23760 
23761 
23762 
23763 
23764 
23765 
23766 
23767 
23768 
23769 
23770 
23771 
23772 
23773 
23774 
23775 
23776 
23777 
23778 
23779 
23780 
23781 
23782 
23783 
23784 
23785 
23786 
23787 
23788 
23789 
23790 
23791 
23792 
23794 
23795 
23796 
23797 
23801 
23802 
23803 
23804 
23805 
23806 
23807 
23808 
23809 
23810 
23811 
23812 
23813 
23814 
23815 
23816 
23817 
23818 
23819 
23820 
23821 
23822 
23823 
23824 
23825 
23826 
23827 
23828 
23829 
23830 
23831 
23832 
23833 
23834 
23836 
23837 
23838 
23839 
23840 
23841 
23842 
23843 
23844 
23845 
23846 
23847 
23848 
23849 
23850 
23851 
23852 
23853 
23854 
23855 
23856 
23857 
23858 
23859 
23860 
23861 
23862 
23863 
23864 
23865 
23866 
23867 
23868 
23869 
23870 
23871 
23872 
23873 
23874 
23875 
23876 
23877 
23878 
23879 
23880 
23881 
23882 
23883 
23884 
23885 
23886 
23887 
23888 
23889 
23890 
23891 
23892 
23893 
23894 
23895 
23896 
23898 
23899 
23900 
23901 
23902 
23903 
23904 
23905 
23906 
23907 
23908 
23909 
23910 
23918 
23919 
24245 
24249 
24918 
24919 
24920 
28231 
28232 
28234 
28244 
28253 
28256 
28257 
28435 
28437 
28438 
28691 
28701 
28702 
28703 
28704 
28705 
28706 
28707 
28708 
28709 
28710 
28712 
28713 
28714 
28717 
28723 
28724 
28725 
28726 
28729 
28737 
28738 
28767 
28769 
28770 
28786 
28787 
30110 
30111 
30118 
30119 
30120 
30121 
30122 
30123 
30124 
30125 
30126 
30127 
30128 
30129 
30130 
30131 
30132 
30134 
30135 
30136 
30137 
30143 
30144 
30145 
30146 
30147 
30148 
30149 
30150 
30151 
30152 
30153 
30154 
30155 
30156 
30157 
30158 
30159 
30160 
30161 
30162 
30163 
30164 
30165 
30166 
30167 
30168 
30176 
30177 
30178 
30179 
30180 
30181 
30183 
30207 
30208 
30209 
30210 
30211 
30216 
30217 
30218 
30219 
30221 
30222 
30223 
30229 
30230 
30231 
30232 
30241 
30242 
30480 
30486 
30527 
SCALARS LOCAL_ID_L1 int 1
LOOKUP_TABLE default
0 
1 
2 
3 
4 
5 
6 
7 
8 
9 
10 
11 
12 
13 
14 
15 
16 
17 
18 
19 
20 
21 
22 
23 
24 
25 
26 
27 
28 
29 
30 
31 
32 
33 
34 
35 
36 
37 
38 
39 
40 
41 
42 
43 
44 
45 
46 
47 
48 
49 
50 
51 
52 
53 
54 
55 
56 
57 
58 
59 
60 
61 
62 
63 
64 
65 
66 
67 
68 
69 
70 
71 
72 
73 
74 
75 
76 
77 
78 
79 
80 
81 
82 
83 
84 
85 
86 
87 
88 
89 
90 
91 
92 
93 
94 
95 
96 
97 
98 
99 
100 
101 
102 
103 
104 
105 
106 
107 
108 
109 
110 
111 
112 
113 
114 
115 
116 
117 
118 
119 
120 
121 
122 
123 
124 
125 
126 
127 
128 
129 
130 
131 
132 
133 
134 
135 
136 
137 
138 
139 
140 
141 
142 
143 
144 
145 
146 
147 
148 
149 
150 
151 
152 
153 
154 
155 
156 
157 
158 
159 
160 
161 
162 
163 
164 
165 
166 
167 
168 
169 
170 
171 
172 
173 
174 
175 
176 
177 
178 
179 
180 
181 
182 
183 
184 
185 
186 
187 
188 
189 
190 
191 
192 
193 
194 
195 
196 
197 
198 
199 
200 
201 
202 
203 
204 
205 
206 
207 
208 
209 
210 
211 
212 
213 
214 
215 
216 
217 
218 
219 
220 
221 
222 
223 
224 
225 
226 
227 
228 
229 
230 
231 
232 
233 
234 
235 
236 
237 
238 
239 
240 
241 
242 
243 
244 
245 
246 
247 
248 
249 
250 
251 
252 
253 
254 
255 
256 
257 
258 
259 
260 
261 
262 
263 
264 
265 
266 
267 
268 
269 
270 
271 
272 
273 
274 
275 
276 
277 
278 
279 
280 
281 
282 
283 
284 
285 
286 
287 
288 
289 
290 
291 
292 
293 
294 
295 
296 
297 
298 
299 
300 
301 
302 
303 
304 
305 
306 
307 
308 
309 
310 
311 
312 
313 
314 
315 
316 
317 
318 
319 
320 
321 
322 
323 
324 
325 
326 
327 
328 
329 
330 
331 
332 
333 
334 
335 
336 
337 
338 
339 
340 
341 
342 
343 
344 
345 
346 
347 
348 
349 
350 
351 
352 
353 
354 
355 
356 
357 
358 
359 
360 
361 
362 
363 
364 
365 
366 
367 
368 
369 
370 
371 
372 
373 
374 
375 
376 
377 
378 
379 
380 
381 
382 
383 
384 
385 
386 
387 
388 
389 
390 
391 
392 
393 
394 
395 
396 
397 
398 
399 
400 
401 
402 
403 
404 
405 
406 
407 
408 
409 
410 
411 
412 
413 
414 
415 
416 
417 
418 
419 
420 
421 
422 
423 
424 
425 
426 
427 
428 
429 
430 
431 
432 
433 
434 
435 
436 
437 
438 
439 
440 
441 
442 
443 
444 
445 
446 
447 
448 
449 
450 
451 
452 
453 
454 
455 
456 
457 
458 
459 
460 
461 
462 
463 
464 
465 
466 
467 
468 
469 
470 
471 
472 
473 
474 
475 
476 
477 
478 
479 
480 
481 
482 
483 
484 
485 
486 
487 
488 
489 
490 
491 
492 
493 
494 
495 
496 
497 
498 
499 
500 
501 
502 
503 
504 
505 
506 
507 
508 
509 
510 
511 
512 
513 
514 
515 
516 
517 
518 
519 
520 
521 
522 
523 
524 
525 
526 
527 
528 
529 
530 
531 
532 
533 
534 
535 
536 
537 
538 
539 
540 
541 
542 
543 
544 
545 
546 
547 
548 
549 
550 
551 
552 
553 
554 
555 
556 
557 
558 
559 
560 
561 